

 Parallel Execution: Process Information
 ==============================================================================
 Rank   Node Name                              NodeID   MyNodeRank  NodeMaster
    0   u-5-1.local                               0          0          0
    1   u-5-1.local                               0          1         -1
    2   u-5-1.local                               0          2         -1
    3   u-5-1.local                               0          3         -1
    4   u-5-1.local                               1          0          1
    5   u-5-1.local                               1          1         -1
    6   u-5-1.local                               1          2         -1
    7   u-5-1.local                               1          3         -1
 ==============================================================================


May use up to 31144MB of RAM as shared memory on node 0
May use up to 31250MB of RAM as shared memory on node 1

 *******************************************************************************
 *                                                                             *
 *  --------------------------------                                           *
 *   Amsterdam Modeling Suite (AMS)              2022.103                      *
 *  --------------------------------                                           *
 *                                               r104886 2022-06-17            *
 *                                                                             *
 *                                                                             *
 *                              =================                              *
 *                              |               |                              *
 *                              |     A M S     |                              *
 *                              |               |                              *
 *                              =================                              *
 *                                                                             *
 *                                                                             *
 *   Online information and documentation:  https://www.scm.com/support/       *
 *   E-mail:  support@scm.com   info@scm.com                                   *
 *                                                                             *
 *   Scientific publications using AMS results must be properly referenced     *
 *   See the User Manuals (or the web site) for recommended citations          *
 *   The terms and conditions of the End User License Agreement apply to       *
 *   the use of AMS, https://www.scm.com/license-terms/                        *
 *                                                                             *
 **********************  x86_64_linux_intel / intelmpi  ************************
 
 Licensed to: Dr. Val?rie Vallet / Laboratoire PhLAM UMR 8523 / Villeneuve d'Ascq Cedex / FRANCE 2023-02-21 11:49:39
 SCM User ID: u10325
  
 AMS 2022.103  RunTime: Feb27-2023 17:12:00  ShM Nodes: 2  Procs: 8

 AMS jobname: pa_oh4_br.SR.b3lyp.tz2p.opt-freq-B21-solvation
 AMS jobid  : 638860456

 Start   directory: /home/shaaban/ams/PhD/bromide/pa_oh4_br/solvation/B21/
 Results directory: /home/shaaban/ams/PhD/bromide/pa_oh4_br/solvation/B21/pa_oh4_br.SR.b3lyp.tz2p.opt-freq-B21-solvation.results/
 Scratch directory: /state/partition1/shaaban/929844.phlam-s-sakura/amstmp_pa_oh4_br.SR.b3lyp.tz2p.opt-freq-B21-solvation_kid0.638860456/


 Communication costs MPI_COMM_WORLD:      1.717 usec per message,   0.0060 usec per 8-byte item
 Communication costs for intra-node:      0.811 usec per message,   0.0032 usec per 8-byte item

 RNG seed: -2045907559 -2047571430 1844053402 1367762900 1341864672 308020401 -644200504 -1208957030



                      ************************************************************************
                      *  ADF 2022.103  RunTime: Feb27-2023 17:12:01  ShM Nodes: 2  Procs: 8  *
                      ************************************************************************
  
       ***************************
       *  GEOMETRY OPTIMIZATION  *
       ***************************

Optimization Method                    Quasi Newton
Optimization Coordinates               Delocalized Coordinates
Optimize lattice                       F
 
 ------------------------------------------------------
 Convergence criteria (Hartree,Angstrom)
 ------------------------------------------------------
 Maximum gradient               0.000100000000
 Maximum rms gradient           0.000066666667
 Maximum step allowed           0.001000000000
 Maximum rms step allowed       0.000666666667
 Maximum energy change allowe   0.000010000000
 Maximum stress energy allowe   0.000500000000
 
Initial model Hessian                  Automatic Hessian
 
------------------------------------
Quasi-Newton Optimizer Parameters
------------------------------------
Hessian Update Method                  BFGS
Maximum number of steps                  250
First GDIIS cycle                          0
Maximum GDIIS vectors                      0
Trust radius (bohr)                        0.200000
Trust radius varies                        T
Constraints converged at all steps         T
Use projector                              T
 
 Rigid motions settings for: old optimizer
 Atomic rotations (x,y,z):     T T T
 Atomic translations (x,y,z):  T T T
 Tolerance:                   1.000000000000000E-006
 
--------
Geometry
--------
Formula: H4BrO4Pa
Atoms
  Index Symbol   x (angstrom)   y (angstrom)   z (angstrom)
      1     Pa     0.31282062    -0.03498341     0.02262280       adf.R=2.200
      2      O     0.99627758     1.57236982    -1.10190924       adf.R=1.517
      3      H     1.46651895     2.03858356    -1.79797609       adf.R=1.350
      4      O    -1.35789413     1.10907728     0.58717082       adf.R=1.517
      5      H    -1.74718657     1.98159116     0.48393487       adf.R=1.350
      6      O     0.37845030    -1.23452606    -1.70013896       adf.R=1.517
      7      H     0.22114252    -2.11793566    -2.04327912       adf.R=1.350
      8      O    -0.44625566    -1.64317688     1.09169280       adf.R=1.517
      9      H    -0.90753540    -2.16188905     1.75538220       adf.R=1.350
     10     Br     2.57659595     0.03626642     1.61404329       adf.R=1.850
 
Total System Charge             0.00000
Bonding info available!
 
 
----------------
ADF Engine Input
----------------
 
 Basis
 Type TZ2P
 Core None
 End
 XC
 Hybrid B3LYP
 End
 Solvation
 Surf Delley
 Solv name=Water cav0=0.0 cav1=0.0067639
 Charged method=CONJ
 C-Mat POT
 SCF VAR ALL
 CSMRSP
 End
 NumericalQuality Good
 

 Title: *** (NO TITLE) ***

 Using automatic Hessian for delocalized coordinates.
 *** GO1_GOStep1 ***

 SOLVATION
-------------------------------------------

  The Delley construction of COSMO surface surface is calculated

       Division Level for Surface Triangles (NDIV)                  3
       Final Division Level for Triangles (NFDIV)                   1
       Radius of the Solvent (RSOL)                           1.93000 angstr
  Dielectric Constant (EPSL)                                 78.39000

       COSMO equation is solved iteratively-               conjugate-gradient

       Maximun of Iterations for Charges (NCIX)                  1000
       Criterion for Charge convergence (CCNV)                1.0E-08

  COSMO charges included variationally in SCF

       COSMO included at every SCF cycle

  Geometry-dependent empirical factor                         0.00000

  C-Matrix calculated in cspmtx

  In cspmtx, C-Matrix calculated using fitted potential

-------------------------------------------



 -------------------------------------------
  COSMO surface
  Area             =          534.658
  Volume           =          838.647
  Number of Points =         1322
 -------------------------------------------



 ======================
 RI Hartree-Fock Scheme
 ======================
  
 Fit Set Quality     : GOOD
 Threshold Quality   : GOOD
 Integration Quality : GOOD
 Response Quality    : DEFAULT
 Is Range Separated  :  F
 
 RIHartreeFock Dependency: number of modified vectors:           4
 cosmo_calcen: 0.5 (esolb+esolc) (Hartrees) =   -0.030991

 Solvation energy (screening term,uncorrected) =    -19.447458 kcal/mol

 Solvation energy (dispersion and cavitation terms) =      0.999768 kcal/mol
 Solvation Energy Contributions (Hartrees)
          esola   esolb+esolc
     0.03099149   -0.06198299
 esol last cycle   -0.03099149
  
 Hartree-Fock exchange energy:   -591.726707810841     
 cosmo_calcen: 0.5 (esolb+esolc) (Hartrees) =   -0.030991

 Solvation energy (screening term,uncorrected) =    -19.447459 kcal/mol

 Solvation energy (dispersion and cavitation terms) =      0.999768 kcal/mol
 Solvation Energy Contributions (Hartrees)
          esola   esolb+esolc
     0.03099149   -0.06198299
 esol last cycle   -0.03099149

 Energy gradients wrt nuclear displacements
 ==========================================

     Atom      Cartesian (a.u./angstrom)
                 X         Y         Z
 ----------------------------------------
     1 Pa    0.019348  0.000950  0.013837
     2 O    -0.000580 -0.000521 -0.005557
     3 H    -0.002469 -0.001713  0.005518
     4 O     0.002354  0.004930 -0.004902
     5 H     0.000289 -0.005235  0.002395
     6 O    -0.003687 -0.005336  0.002983
     7 H     0.001986  0.005527 -0.000324
     8 O    -0.005239 -0.000576  0.001347
     9 H     0.004159  0.002455 -0.004028
    10 Br   -0.016162 -0.000481 -0.011267
 ----------------------------------------
 Mulliken charges used for AMS results%charges...
 
----------------------------------------------------------------------
Geometry Convergence after Step   1       (Hartree/Angstrom,Angstrom)
----------------------------------------------------------------------
current energy                               -2.65687192 Hartree
energy change                      -2.65687192     0.00001000    F
constrained gradient max            0.01934635     0.00010000    F
constrained gradient rms            0.00650091     0.00006667    F
gradient max                        0.01934635
gradient rms                        0.00650091
cart. step max                      0.01867027     0.00100000    F
cart. step rms                      0.00757434     0.00066667    F
 
 
--------
Geometry
--------
Formula: H4BrO4Pa
Atoms
  Index Symbol   x (angstrom)   y (angstrom)   z (angstrom)
      1     Pa     0.30123055    -0.03479266     0.01479227       adf.R=2.200
      2      O     1.00592568     1.57461864    -1.09609221       adf.R=1.517
      3      H     1.48518922     2.03804911    -1.79216250       adf.R=1.350
      4      O    -1.37097813     1.10612937     0.58670967       adf.R=1.517
      5      H    -1.75641675     1.98267626     0.47867141       adf.R=1.350
      6      O     0.37353642    -1.23160282    -1.71103222       adf.R=1.517
      7      H     0.21342908    -2.11951832    -2.04885475       adf.R=1.350
      8      O    -0.43822859    -1.64432016     1.09786159       adf.R=1.517
      9      H    -0.89538725    -2.16172873     1.76992216       adf.R=1.350
     10     Br     2.57463393     0.03586650     1.61172795       adf.R=1.850
 
Total System Charge             0.00000
Bonding info available!
 
 *** GO1_GOStep2 ***

 SOLVATION
-------------------------------------------

  The Delley construction of COSMO surface surface is calculated

       Division Level for Surface Triangles (NDIV)                  3
       Final Division Level for Triangles (NFDIV)                   1
       Radius of the Solvent (RSOL)                           1.93000 angstr
  Dielectric Constant (EPSL)                                 78.39000

       COSMO equation is solved iteratively-               conjugate-gradient

       Maximun of Iterations for Charges (NCIX)                  1000
       Criterion for Charge convergence (CCNV)                1.0E-08

  COSMO charges included variationally in SCF

       COSMO included at every SCF cycle

  Geometry-dependent empirical factor                         0.00000

  C-Matrix calculated in cspmtx

  In cspmtx, C-Matrix calculated using fitted potential

-------------------------------------------



 -------------------------------------------
  COSMO surface
  Area             =          533.862
  Volume           =          837.507
  Number of Points =         1319
 -------------------------------------------



 ======================
 RI Hartree-Fock Scheme
 ======================
  
 Fit Set Quality     : GOOD
 Threshold Quality   : GOOD
 Integration Quality : GOOD
 Response Quality    : DEFAULT
 Is Range Separated  :  F
 
 RIHartreeFock Dependency: number of modified vectors:           4
 cosmo_calcen: 0.5 (esolb+esolc) (Hartrees) =   -0.031653

 Solvation energy (screening term,uncorrected) =    -19.862369 kcal/mol

 Solvation energy (dispersion and cavitation terms) =      0.998280 kcal/mol
 Solvation Energy Contributions (Hartrees)
          esola   esolb+esolc
     0.03165270   -0.06330539
 esol last cycle   -0.03165270
  
 Hartree-Fock exchange energy:   -591.716738987701     
 cosmo_calcen: 0.5 (esolb+esolc) (Hartrees) =   -0.031653

 Solvation energy (screening term,uncorrected) =    -19.862365 kcal/mol

 Solvation energy (dispersion and cavitation terms) =      0.998280 kcal/mol
 Solvation Energy Contributions (Hartrees)
          esola   esolb+esolc
     0.03165269   -0.06330538
 esol last cycle   -0.03165269

 Energy gradients wrt nuclear displacements
 ==========================================

     Atom      Cartesian (a.u./angstrom)
                 X         Y         Z
 ----------------------------------------
     1 Pa    0.016219  0.000759  0.011594
     2 O    -0.001886 -0.002118 -0.001983
     3 H     0.000308  0.001128  0.001305
     4 O     0.003094  0.001050 -0.003560
     5 H    -0.001536 -0.000874  0.001807
     6 O    -0.002454 -0.001272  0.003501
     7 H     0.001159  0.000947 -0.001998
     8 O    -0.002513  0.001471 -0.001088
     9 H     0.001293 -0.000748 -0.000040
    10 Br   -0.013683 -0.000342 -0.009538
 ----------------------------------------
 Mulliken charges used for AMS results%charges...

 dE(predicted):    -0.24247E-03, dE(actual):    -0.42611E-03, Trust radius:    0.200000, all in a.u.
 
----------------------------------------------------------------------
Geometry Convergence after Step   2       (Hartree/Angstrom,Angstrom)
----------------------------------------------------------------------
current energy                               -2.65729803 Hartree
energy change                      -0.00042611     0.00001000    F
constrained gradient max            0.01621812     0.00010000    F
constrained gradient rms            0.00503046     0.00006667    F
gradient max                        0.01621812
gradient rms                        0.00503046
cart. step max                      0.04237897     0.00100000    F
cart. step rms                      0.01967255     0.00066667    F
 
 
--------
Geometry
--------
Formula: H4BrO4Pa
Atoms
  Index Symbol   x (angstrom)   y (angstrom)   z (angstrom)
      1     Pa     0.26866075    -0.03340077    -0.00671985       adf.R=2.200
      2      O     1.02919602     1.58133063    -1.07717786       adf.R=1.517
      3      H     1.52756819     2.02921142    -1.77414845       adf.R=1.350
      4      O    -1.40791009     1.09708554     0.58671544       adf.R=1.517
      5      H    -1.77497061     1.98168302     0.45722602       adf.R=1.350
      6      O     0.36143946    -1.22123275    -1.74104754       adf.R=1.517
      7      H     0.18857352    -2.11898450    -2.05384927       adf.R=1.350
      8      O    -0.41416753    -1.64760464     1.11011596       adf.R=1.517
      9      H    -0.86106891    -2.15557392     1.80033566       adf.R=1.350
     10     Br     2.57561337     0.03286315     1.61009324       adf.R=1.850
 
Total System Charge             0.00000
Bonding info available!
 
 *** GO1_GOStep3 ***

 SOLVATION
-------------------------------------------

  The Delley construction of COSMO surface surface is calculated

       Division Level for Surface Triangles (NDIV)                  3
       Final Division Level for Triangles (NFDIV)                   1
       Radius of the Solvent (RSOL)                           1.93000 angstr
  Dielectric Constant (EPSL)                                 78.39000

       COSMO equation is solved iteratively-               conjugate-gradient

       Maximun of Iterations for Charges (NCIX)                  1000
       Criterion for Charge convergence (CCNV)                1.0E-08

  COSMO charges included variationally in SCF

       COSMO included at every SCF cycle

  Geometry-dependent empirical factor                         0.00000

  C-Matrix calculated in cspmtx

  In cspmtx, C-Matrix calculated using fitted potential

-------------------------------------------



 -------------------------------------------
  COSMO surface
  Area             =          536.145
  Volume           =          842.223
  Number of Points =         1319
 -------------------------------------------



 ======================
 RI Hartree-Fock Scheme
 ======================
  
 Fit Set Quality     : GOOD
 Threshold Quality   : GOOD
 Integration Quality : GOOD
 Response Quality    : DEFAULT
 Is Range Separated  :  F
 
 RIHartreeFock Dependency: number of modified vectors:           4
 cosmo_calcen: 0.5 (esolb+esolc) (Hartrees) =   -0.033965

 Solvation energy (screening term,uncorrected) =    -21.313278 kcal/mol

 Solvation energy (dispersion and cavitation terms) =      1.002550 kcal/mol
 Solvation Energy Contributions (Hartrees)
          esola   esolb+esolc
     0.03396487   -0.06792973
 esol last cycle   -0.03396487
  
 Hartree-Fock exchange energy:   -591.699941707781     
 cosmo_calcen: 0.5 (esolb+esolc) (Hartrees) =   -0.033965

 Solvation energy (screening term,uncorrected) =    -21.313277 kcal/mol

 Solvation energy (dispersion and cavitation terms) =      1.002550 kcal/mol
 Solvation Energy Contributions (Hartrees)
          esola   esolb+esolc
     0.03396487   -0.06792973
 esol last cycle   -0.03396487

 Energy gradients wrt nuclear displacements
 ==========================================

     Atom      Cartesian (a.u./angstrom)
                 X         Y         Z
 ----------------------------------------
     1 Pa    0.006247  0.000301  0.004055
     2 O    -0.000647 -0.001943  0.000773
     3 H     0.002850  0.003578 -0.002523
     4 O     0.001894 -0.002711 -0.000572
     5 H    -0.002962  0.003925  0.000774
     6 O    -0.000405  0.002912  0.002180
     7 H     0.000038 -0.004202 -0.003210
     8 O     0.000272  0.001784 -0.000931
     9 H    -0.001272 -0.003555  0.003587
    10 Br   -0.006016 -0.000089 -0.004134
 ----------------------------------------
 Mulliken charges used for AMS results%charges...

 dE(predicted):    -0.56166E-03, dE(actual):    -0.50818E-03, Trust radius:    0.400000, all in a.u.
 
----------------------------------------------------------------------
Geometry Convergence after Step   3       (Hartree/Angstrom,Angstrom)
----------------------------------------------------------------------
current energy                               -2.65780621 Hartree
energy change                      -0.00050818     0.00001000    F
constrained gradient max            0.00624695     0.00010000    F
constrained gradient rms            0.00288418     0.00006667    F
gradient max                        0.00624695
gradient rms                        0.00288418
cart. step max                      0.01236651     0.00100000    F
cart. step rms                      0.00575617     0.00066667    F
 
 
--------
Geometry
--------
Formula: H4BrO4Pa
Atoms
  Index Symbol   x (angstrom)   y (angstrom)   z (angstrom)
      1     Pa     0.26076837    -0.03234469    -0.01084120       adf.R=2.200
      2      O     1.02982606     1.58531705    -1.06965435       adf.R=1.517
      3      H     1.52751685     2.02187917    -1.77324021       adf.R=1.350
      4      O    -1.41710463     1.09334399     0.59044751       adf.R=1.517
      5      H    -1.77125735     1.97977809     0.44485951       adf.R=1.350
      6      O     0.36284655    -1.21525512    -1.74834770       adf.R=1.517
      7      H     0.17987434    -2.11575669    -2.04394407       adf.R=1.350
      8      O    -0.40762328    -1.65062511     1.10727550       adf.R=1.517
      9      H    -0.85783521    -2.15189663     1.79917098       adf.R=1.350
     10     Br     2.58592246     0.03093712     1.61581740       adf.R=1.850
 
Total System Charge             0.00000
Bonding info available!
 
 *** GO1_GOStep4 ***

 SOLVATION
-------------------------------------------

  The Delley construction of COSMO surface surface is calculated

       Division Level for Surface Triangles (NDIV)                  3
       Final Division Level for Triangles (NFDIV)                   1
       Radius of the Solvent (RSOL)                           1.93000 angstr
  Dielectric Constant (EPSL)                                 78.39000

       COSMO equation is solved iteratively-               conjugate-gradient

       Maximun of Iterations for Charges (NCIX)                  1000
       Criterion for Charge convergence (CCNV)                1.0E-08

  COSMO charges included variationally in SCF

       COSMO included at every SCF cycle

  Geometry-dependent empirical factor                         0.00000

  C-Matrix calculated in cspmtx

  In cspmtx, C-Matrix calculated using fitted potential

-------------------------------------------



 -------------------------------------------
  COSMO surface
  Area             =          536.431
  Volume           =          843.416
  Number of Points =         1317
 -------------------------------------------



 ======================
 RI Hartree-Fock Scheme
 ======================
  
 Fit Set Quality     : GOOD
 Threshold Quality   : GOOD
 Integration Quality : GOOD
 Response Quality    : DEFAULT
 Is Range Separated  :  F
 
 RIHartreeFock Dependency: number of modified vectors:           4
 cosmo_calcen: 0.5 (esolb+esolc) (Hartrees) =   -0.035067

 Solvation energy (screening term,uncorrected) =    -22.005152 kcal/mol

 Solvation energy (dispersion and cavitation terms) =      1.003085 kcal/mol
 Solvation Energy Contributions (Hartrees)
          esola   esolb+esolc
     0.03506744   -0.07013488
 esol last cycle   -0.03506744
  
 Hartree-Fock exchange energy:   -591.700074454535     
 cosmo_calcen: 0.5 (esolb+esolc) (Hartrees) =   -0.035067

 Solvation energy (screening term,uncorrected) =    -22.005149 kcal/mol

 Solvation energy (dispersion and cavitation terms) =      1.003085 kcal/mol
 Solvation Energy Contributions (Hartrees)
          esola   esolb+esolc
     0.03506743   -0.07013487
 esol last cycle   -0.03506743

 Energy gradients wrt nuclear displacements
 ==========================================

     Atom      Cartesian (a.u./angstrom)
                 X         Y         Z
 ----------------------------------------
     1 Pa    0.001582  0.000194  0.000698
     2 O     0.000723 -0.001079 -0.000174
     3 H     0.001988  0.002778 -0.001425
     4 O     0.000694 -0.000534 -0.000375
     5 H    -0.001790  0.001680  0.000902
     6 O    -0.000573  0.000447  0.001107
     7 H     0.000453 -0.001587 -0.002049
     8 O    -0.000041  0.000757  0.000526
     9 H    -0.000559 -0.002664  0.002428
    10 Br   -0.002479  0.000008 -0.001638
 ----------------------------------------
 Mulliken charges used for AMS results%charges...

 dE(predicted):    -0.14178E-03, dE(actual):    -0.48754E-03, Trust radius:    0.400000, all in a.u.
 
----------------------------------------------------------------------
Geometry Convergence after Step   4       (Hartree/Angstrom,Angstrom)
----------------------------------------------------------------------
current energy                               -2.65829374 Hartree
energy change                      -0.00048754     0.00001000    F
constrained gradient max            0.00279580     0.00010000    F
constrained gradient rms            0.00138856     0.00006667    F
gradient max                        0.00279580
gradient rms                        0.00138856
cart. step max                      0.02849203     0.00100000    F
cart. step rms                      0.01356420     0.00066667    F
 
 
--------
Geometry
--------
Formula: H4BrO4Pa
Atoms
  Index Symbol   x (angstrom)   y (angstrom)   z (angstrom)
      1     Pa     0.26123461    -0.03078132    -0.00814810       adf.R=2.200
      2      O     1.01762138     1.59373443    -1.06028140       adf.R=1.517
      3      H     1.50075132     2.00988514    -1.78369263       adf.R=1.350
      4      O    -1.41895168     1.08720476     0.60129774       adf.R=1.517
      5      H    -1.75057331     1.97575681     0.42386754       adf.R=1.350
      6      O     0.37580081    -1.20477618    -1.75058143       adf.R=1.517
      7      H     0.17128822    -2.10937120    -2.01562113       adf.R=1.350
      8      O    -0.40510285    -1.65715194     1.09341338       adf.R=1.517
      9      H    -0.87354882    -2.14593562     1.77956550       adf.R=1.350
     10     Br     2.61441449     0.02681230     1.63172388       adf.R=1.850
 
Total System Charge             0.00000
Bonding info available!
 
 *** GO1_GOStep5 ***

 SOLVATION
-------------------------------------------

  The Delley construction of COSMO surface surface is calculated

       Division Level for Surface Triangles (NDIV)                  3
       Final Division Level for Triangles (NFDIV)                   1
       Radius of the Solvent (RSOL)                           1.93000 angstr
  Dielectric Constant (EPSL)                                 78.39000

       COSMO equation is solved iteratively-               conjugate-gradient

       Maximun of Iterations for Charges (NCIX)                  1000
       Criterion for Charge convergence (CCNV)                1.0E-08

  COSMO charges included variationally in SCF

       COSMO included at every SCF cycle

  Geometry-dependent empirical factor                         0.00000

  C-Matrix calculated in cspmtx

  In cspmtx, C-Matrix calculated using fitted potential

-------------------------------------------



 -------------------------------------------
  COSMO surface
  Area             =          536.844
  Volume           =          845.724
  Number of Points =         1324
 -------------------------------------------



 ======================
 RI Hartree-Fock Scheme
 ======================
  
 Fit Set Quality     : GOOD
 Threshold Quality   : GOOD
 Integration Quality : GOOD
 Response Quality    : DEFAULT
 Is Range Separated  :  F
 
 RIHartreeFock Dependency: number of modified vectors:           4
 cosmo_calcen: 0.5 (esolb+esolc) (Hartrees) =   -0.036602

 Solvation energy (screening term,uncorrected) =    -22.968274 kcal/mol

 Solvation energy (dispersion and cavitation terms) =      1.003857 kcal/mol
 Solvation Energy Contributions (Hartrees)
          esola   esolb+esolc
     0.03660227   -0.07320454
 esol last cycle   -0.03660227
  
 Hartree-Fock exchange energy:   -591.702571881830     
 cosmo_calcen: 0.5 (esolb+esolc) (Hartrees) =   -0.036602

 Solvation energy (screening term,uncorrected) =    -22.968269 kcal/mol

 Solvation energy (dispersion and cavitation terms) =      1.003857 kcal/mol
 Solvation Energy Contributions (Hartrees)
          esola   esolb+esolc
     0.03660226   -0.07320452
 esol last cycle   -0.03660226

 Energy gradients wrt nuclear displacements
 ==========================================

     Atom      Cartesian (a.u./angstrom)
                 X         Y         Z
 ----------------------------------------
     1 Pa   -0.004134 -0.000000 -0.003468
     2 O     0.001923 -0.000370 -0.002100
     3 H     0.000055  0.001004  0.001287
     4 O     0.000357  0.000707 -0.000316
     5 H    -0.000573 -0.000151  0.000831
     6 O    -0.000565 -0.000769  0.000936
     7 H     0.000650  0.000297 -0.000921
     8 O    -0.001345 -0.000226  0.002224
     9 H     0.001243 -0.000611 -0.000267
    10 Br    0.002390  0.000119  0.001793
 ----------------------------------------
 Mulliken charges used for AMS results%charges...

 dE(predicted):    -0.19366E-03, dE(actual):    -0.30421E-03, Trust radius:    0.400000, all in a.u.
 
----------------------------------------------------------------------
Geometry Convergence after Step   5       (Hartree/Angstrom,Angstrom)
----------------------------------------------------------------------
current energy                               -2.65859795 Hartree
energy change                      -0.00030421     0.00001000    F
constrained gradient max            0.00413470     0.00010000    F
constrained gradient rms            0.00144546     0.00006667    F
gradient max                        0.00413470
gradient rms                        0.00144546
cart. step max                      0.03370430     0.00100000    F
cart. step rms                      0.01391765     0.00066667    F
 
 
--------
Geometry
--------
Formula: H4BrO4Pa
Atoms
  Index Symbol   x (angstrom)   y (angstrom)   z (angstrom)
      1     Pa     0.27220955    -0.02974647     0.00138394       adf.R=2.200
      2      O     1.00207578     1.59986328    -1.05700629       adf.R=1.517
      3      H     1.46704702     2.00190974    -1.79953399       adf.R=1.350
      4      O    -1.41056952     1.08365754     0.61078174       adf.R=1.517
      5      H    -1.72952628     1.97171848     0.41156502       adf.R=1.350
      6      O     0.39072667    -1.19768265    -1.74449075       adf.R=1.517
      7      H     0.17037044    -2.10317532    -1.99141145       adf.R=1.350
      8      O    -0.40900839    -1.66234010     1.07945782       adf.R=1.517
      9      H    -0.89839938    -2.14277741     1.75622465       adf.R=1.350
     10     Br     2.63800829     0.02395010     1.64457267       adf.R=1.850
 
Total System Charge             0.00000
Bonding info available!
 
 *** GO1_GOStep6 ***

 SOLVATION
-------------------------------------------

  The Delley construction of COSMO surface surface is calculated

       Division Level for Surface Triangles (NDIV)                  3
       Final Division Level for Triangles (NFDIV)                   1
       Radius of the Solvent (RSOL)                           1.93000 angstr
  Dielectric Constant (EPSL)                                 78.39000

       COSMO equation is solved iteratively-               conjugate-gradient

       Maximun of Iterations for Charges (NCIX)                  1000
       Criterion for Charge convergence (CCNV)                1.0E-08

  COSMO charges included variationally in SCF

       COSMO included at every SCF cycle

  Geometry-dependent empirical factor                         0.00000

  C-Matrix calculated in cspmtx

  In cspmtx, C-Matrix calculated using fitted potential

-------------------------------------------



 -------------------------------------------
  COSMO surface
  Area             =          536.688
  Volume           =          846.158
  Number of Points =         1316
 -------------------------------------------



 ======================
 RI Hartree-Fock Scheme
 ======================
  
 Fit Set Quality     : GOOD
 Threshold Quality   : GOOD
 Integration Quality : GOOD
 Response Quality    : DEFAULT
 Is Range Separated  :  F
 
 RIHartreeFock Dependency: number of modified vectors:           4
 cosmo_calcen: 0.5 (esolb+esolc) (Hartrees) =   -0.037118

 Solvation energy (screening term,uncorrected) =    -23.292178 kcal/mol

 Solvation energy (dispersion and cavitation terms) =      1.003565 kcal/mol
 Solvation Energy Contributions (Hartrees)
          esola   esolb+esolc
     0.03711844   -0.07423689
 esol last cycle   -0.03711844
  
 Hartree-Fock exchange energy:   -591.705483860121     
 cosmo_calcen: 0.5 (esolb+esolc) (Hartrees) =   -0.037118

 Solvation energy (screening term,uncorrected) =    -23.292178 kcal/mol

 Solvation energy (dispersion and cavitation terms) =      1.003565 kcal/mol
 Solvation Energy Contributions (Hartrees)
          esola   esolb+esolc
     0.03711845   -0.07423689
 esol last cycle   -0.03711845

 Energy gradients wrt nuclear displacements
 ==========================================

     Atom      Cartesian (a.u./angstrom)
                 X         Y         Z
 ----------------------------------------
     1 Pa   -0.005646  0.000027 -0.004739
     2 O     0.000932 -0.001126 -0.002077
     3 H    -0.000412  0.000490  0.002076
     4 O     0.000757  0.001269 -0.000715
     5 H     0.000042 -0.001224  0.000805
     6 O    -0.000796 -0.001314  0.001373
     7 H     0.000779  0.001393 -0.000337
     8 O    -0.001768  0.000377  0.001470
     9 H     0.001821 -0.000038 -0.000966
    10 Br    0.004291  0.000145  0.003109
 ----------------------------------------
 Mulliken charges used for AMS results%charges...

 dE(predicted):    -0.86381E-04, dE(actual):    -0.87738E-04, Trust radius:    0.400000, all in a.u.
 
----------------------------------------------------------------------
Geometry Convergence after Step   6       (Hartree/Angstrom,Angstrom)
----------------------------------------------------------------------
current energy                               -2.65868569 Hartree
energy change                      -0.00008774     0.00001000    F
constrained gradient max            0.00564669     0.00010000    F
constrained gradient rms            0.00195807     0.00006667    F
gradient max                        0.00564669
gradient rms                        0.00195807
cart. step max                      0.03838929     0.00100000    F
cart. step rms                      0.01546802     0.00066667    F
 
 
--------
Geometry
--------
Formula: H4BrO4Pa
Atoms
  Index Symbol   x (angstrom)   y (angstrom)   z (angstrom)
      1     Pa     0.28912721    -0.02853384     0.01551773       adf.R=2.200
      2      O     0.98589069     1.60547007    -1.05529977       adf.R=1.517
      3      H     1.42865773     1.99185837    -1.81978777       adf.R=1.350
      4      O    -1.39849610     1.07962549     0.62096340       adf.R=1.517
      5      H    -1.70865053     1.96631088     0.40230554       adf.R=1.350
      6      O     0.40808109    -1.18964396    -1.73523683       adf.R=1.517
      7      H     0.17214336    -2.09498043    -1.96830869       adf.R=1.350
      8      O    -0.41447535    -1.66742442     1.06546824       adf.R=1.517
      9      H    -0.92938635    -2.13871118     1.72999404       adf.R=1.350
     10     Br     2.66004243     0.02140621     1.65592747       adf.R=1.850
 
Total System Charge             0.00000
Bonding info available!
 
 *** GO1_GOStep7 ***

 SOLVATION
-------------------------------------------

  The Delley construction of COSMO surface surface is calculated

       Division Level for Surface Triangles (NDIV)                  3
       Final Division Level for Triangles (NFDIV)                   1
       Radius of the Solvent (RSOL)                           1.93000 angstr
  Dielectric Constant (EPSL)                                 78.39000

       COSMO equation is solved iteratively-               conjugate-gradient

       Maximun of Iterations for Charges (NCIX)                  1000
       Criterion for Charge convergence (CCNV)                1.0E-08

  COSMO charges included variationally in SCF

       COSMO included at every SCF cycle

  Geometry-dependent empirical factor                         0.00000

  C-Matrix calculated in cspmtx

  In cspmtx, C-Matrix calculated using fitted potential

-------------------------------------------



 -------------------------------------------
  COSMO surface
  Area             =          535.519
  Volume           =          845.251
  Number of Points =         1316
 -------------------------------------------



 ======================
 RI Hartree-Fock Scheme
 ======================
  
 Fit Set Quality     : GOOD
 Threshold Quality   : GOOD
 Integration Quality : GOOD
 Response Quality    : DEFAULT
 Is Range Separated  :  F
 
 RIHartreeFock Dependency: number of modified vectors:           4
 cosmo_calcen: 0.5 (esolb+esolc) (Hartrees) =   -0.037208

 Solvation energy (screening term,uncorrected) =    -23.348103 kcal/mol

 Solvation energy (dispersion and cavitation terms) =      1.001378 kcal/mol
 Solvation Energy Contributions (Hartrees)
          esola   esolb+esolc
     0.03720757   -0.07441513
 esol last cycle   -0.03720757
  
 Hartree-Fock exchange energy:   -591.707619062444     
 cosmo_calcen: 0.5 (esolb+esolc) (Hartrees) =   -0.037208

 Solvation energy (screening term,uncorrected) =    -23.348097 kcal/mol

 Solvation energy (dispersion and cavitation terms) =      1.001378 kcal/mol
 Solvation Energy Contributions (Hartrees)
          esola   esolb+esolc
     0.03720756   -0.07441511
 esol last cycle   -0.03720756

 Energy gradients wrt nuclear displacements
 ==========================================

     Atom      Cartesian (a.u./angstrom)
                 X         Y         Z
 ----------------------------------------
     1 Pa   -0.005349 -0.000020 -0.004401
     2 O    -0.000681 -0.002318 -0.001301
     3 H    -0.000192  0.000560  0.001848
     4 O     0.001427  0.000946 -0.001082
     5 H     0.000206 -0.001285  0.000661
     6 O    -0.000909 -0.000922  0.001964
     7 H     0.000670  0.001389 -0.000164
     8 O    -0.001715  0.001660 -0.000261
     9 H     0.001758 -0.000157 -0.000696
    10 Br    0.004785  0.000146  0.003431
 ----------------------------------------
 Mulliken charges used for AMS results%charges...

 dE(predicted):    -0.72483E-04, dE(actual):    -0.59343E-04, Trust radius:    0.400000, all in a.u.
 
----------------------------------------------------------------------
Geometry Convergence after Step   7       (Hartree/Angstrom,Angstrom)
----------------------------------------------------------------------
current energy                               -2.65874504 Hartree
energy change                      -0.00005934     0.00001000    F
constrained gradient max            0.00534993     0.00010000    F
constrained gradient rms            0.00197901     0.00006667    F
gradient max                        0.00534993
gradient rms                        0.00197901
cart. step max                      0.03892738     0.00100000    F
cart. step rms                      0.01571773     0.00066667    F
 
 
--------
Geometry
--------
Formula: H4BrO4Pa
Atoms
  Index Symbol   x (angstrom)   y (angstrom)   z (angstrom)
      1     Pa     0.30855142    -0.02696143     0.03192429       adf.R=2.200
      2      O     0.97306071     1.61142942    -1.05222612       adf.R=1.517
      3      H     1.38973035     1.97720158    -1.84191788       adf.R=1.350
      4      O    -1.38717085     1.07363201     0.63171642       adf.R=1.517
      5      H    -1.69060777     1.95815764     0.39345393       adf.R=1.350
      6      O     0.42672071    -1.17908363    -1.72648755       adf.R=1.517
      7      H     0.17374017    -2.08347203    -1.94721290       adf.R=1.350
      8      O    -0.41777340    -1.67260512     1.05396618       adf.R=1.517
      9      H    -0.96277195    -2.13119179     1.70409902       adf.R=1.350
     10     Br     2.67945477     0.01827052     1.66422796       adf.R=1.850
 
Total System Charge             0.00000
Bonding info available!
 
 *** GO1_GOStep8 ***

 SOLVATION
-------------------------------------------

  The Delley construction of COSMO surface surface is calculated

       Division Level for Surface Triangles (NDIV)                  3
       Final Division Level for Triangles (NFDIV)                   1
       Radius of the Solvent (RSOL)                           1.93000 angstr
  Dielectric Constant (EPSL)                                 78.39000

       COSMO equation is solved iteratively-               conjugate-gradient

       Maximun of Iterations for Charges (NCIX)                  1000
       Criterion for Charge convergence (CCNV)                1.0E-08

  COSMO charges included variationally in SCF

       COSMO included at every SCF cycle

  Geometry-dependent empirical factor                         0.00000

  C-Matrix calculated in cspmtx

  In cspmtx, C-Matrix calculated using fitted potential

-------------------------------------------



 -------------------------------------------
  COSMO surface
  Area             =          534.531
  Volume           =          844.719
  Number of Points =         1315
 -------------------------------------------



 ======================
 RI Hartree-Fock Scheme
 ======================
  
 Fit Set Quality     : GOOD
 Threshold Quality   : GOOD
 Integration Quality : GOOD
 Response Quality    : DEFAULT
 Is Range Separated  :  F
 
 RIHartreeFock Dependency: number of modified vectors:           4
 cosmo_calcen: 0.5 (esolb+esolc) (Hartrees) =   -0.037116

 Solvation energy (screening term,uncorrected) =    -23.290684 kcal/mol

 Solvation energy (dispersion and cavitation terms) =      0.999531 kcal/mol
 Solvation Energy Contributions (Hartrees)
          esola   esolb+esolc
     0.03711606   -0.07423213
 esol last cycle   -0.03711606
  
 Hartree-Fock exchange energy:   -591.708382800322     
 cosmo_calcen: 0.5 (esolb+esolc) (Hartrees) =   -0.037116

 Solvation energy (screening term,uncorrected) =    -23.290680 kcal/mol

 Solvation energy (dispersion and cavitation terms) =      0.999531 kcal/mol
 Solvation Energy Contributions (Hartrees)
          esola   esolb+esolc
     0.03711606   -0.07423211
 esol last cycle   -0.03711606

 Energy gradients wrt nuclear displacements
 ==========================================

     Atom      Cartesian (a.u./angstrom)
                 X         Y         Z
 ----------------------------------------
     1 Pa   -0.003644  0.000052 -0.003005
     2 O    -0.002159 -0.003243 -0.000373
     3 H     0.000218  0.000850  0.001046
     4 O     0.001823  0.000076 -0.001071
     5 H     0.000087 -0.000572  0.000326
     6 O    -0.000768 -0.000044  0.002121
     7 H     0.000351  0.000655 -0.000180
     8 O    -0.001453  0.002711 -0.001884
     9 H     0.001312 -0.000606 -0.000004
    10 Br    0.004234  0.000122  0.003024
 ----------------------------------------
 Mulliken charges used for AMS results%charges...

 dE(predicted):    -0.69754E-04, dE(actual):    -0.34709E-04, Trust radius:    0.400000, all in a.u.
 
----------------------------------------------------------------------
Geometry Convergence after Step   8       (Hartree/Angstrom,Angstrom)
----------------------------------------------------------------------
current energy                               -2.65877974 Hartree
energy change                      -0.00003471     0.00001000    F
constrained gradient max            0.00420898     0.00010000    F
constrained gradient rms            0.00175372     0.00006667    F
gradient max                        0.00420898
gradient rms                        0.00175372
cart. step max                      0.03536988     0.00100000    F
cart. step rms                      0.01501423     0.00066667    F
 
 
--------
Geometry
--------
Formula: H4BrO4Pa
Atoms
  Index Symbol   x (angstrom)   y (angstrom)   z (angstrom)
      1     Pa     0.32736336    -0.02499311     0.04823721       adf.R=2.200
      2      O     0.96802888     1.61879589    -1.04504125       adf.R=1.517
      3      H     1.35436046     1.95680184    -1.86293781       adf.R=1.350
      4      O    -1.38025024     1.06442902     0.64234641       adf.R=1.517
      5      H    -1.67807097     1.94569028     0.38300478       adf.R=1.350
      6      O     0.44509194    -1.16543947    -1.72104527       adf.R=1.517
      7      H     0.17253652    -2.06798896    -1.92889697       adf.R=1.350
      8      O    -0.41553982    -1.67802130     1.04768284       adf.R=1.517
      9      H    -0.99547778    -2.11809581     1.68120915       adf.R=1.350
     10     Br     2.69489182     0.01419879     1.66698426       adf.R=1.850
 
Total System Charge             0.00000
Bonding info available!
 
 *** GO1_GOStep9 ***

 SOLVATION
-------------------------------------------

  The Delley construction of COSMO surface surface is calculated

       Division Level for Surface Triangles (NDIV)                  3
       Final Division Level for Triangles (NFDIV)                   1
       Radius of the Solvent (RSOL)                           1.93000 angstr
  Dielectric Constant (EPSL)                                 78.39000

       COSMO equation is solved iteratively-               conjugate-gradient

       Maximun of Iterations for Charges (NCIX)                  1000
       Criterion for Charge convergence (CCNV)                1.0E-08

  COSMO charges included variationally in SCF

       COSMO included at every SCF cycle

  Geometry-dependent empirical factor                         0.00000

  C-Matrix calculated in cspmtx

  In cspmtx, C-Matrix calculated using fitted potential

-------------------------------------------



 -------------------------------------------
  COSMO surface
  Area             =          533.120
  Volume           =          843.679
  Number of Points =         1310
 -------------------------------------------



 ======================
 RI Hartree-Fock Scheme
 ======================
  
 Fit Set Quality     : GOOD
 Threshold Quality   : GOOD
 Integration Quality : GOOD
 Response Quality    : DEFAULT
 Is Range Separated  :  F
 
 RIHartreeFock Dependency: number of modified vectors:           4
 cosmo_calcen: 0.5 (esolb+esolc) (Hartrees) =   -0.037045

 Solvation energy (screening term,uncorrected) =    -23.246190 kcal/mol

 Solvation energy (dispersion and cavitation terms) =      0.996893 kcal/mol
 Solvation Energy Contributions (Hartrees)
          esola   esolb+esolc
     0.03704516   -0.07409032
 esol last cycle   -0.03704516
  
 Hartree-Fock exchange energy:   -591.707841550870     
 cosmo_calcen: 0.5 (esolb+esolc) (Hartrees) =   -0.037045

 Solvation energy (screening term,uncorrected) =    -23.246216 kcal/mol

 Solvation energy (dispersion and cavitation terms) =      0.996893 kcal/mol
 Solvation Energy Contributions (Hartrees)
          esola   esolb+esolc
     0.03704520   -0.07409040
 esol last cycle   -0.03704520

 Energy gradients wrt nuclear displacements
 ==========================================

     Atom      Cartesian (a.u./angstrom)
                 X         Y         Z
 ----------------------------------------
     1 Pa   -0.001015  0.000035 -0.000846
     2 O    -0.002796 -0.003431  0.000294
     3 H     0.000569  0.001102  0.000060
     4 O     0.001542 -0.000870 -0.000520
     5 H    -0.000045  0.000381 -0.000160
     6 O    -0.000351  0.000966  0.001493
     7 H    -0.000147 -0.000406 -0.000161
     8 O    -0.001102  0.003244 -0.002867
     9 H     0.000598 -0.001109  0.000729
    10 Br    0.002745  0.000088  0.001979
 ----------------------------------------
 Mulliken charges used for AMS results%charges...

 dE(predicted):    -0.78392E-04, dE(actual):    -0.39246E-04, Trust radius:    0.400000, all in a.u.
 
----------------------------------------------------------------------
Geometry Convergence after Step   9       (Hartree/Angstrom,Angstrom)
----------------------------------------------------------------------
current energy                               -2.65881899 Hartree
energy change                      -0.00003925     0.00001000    F
constrained gradient max            0.00341727     0.00010000    F
constrained gradient rms            0.00145551     0.00006667    F
gradient max                        0.00341727
gradient rms                        0.00145551
cart. step max                      0.02886533     0.00100000    F
cart. step rms                      0.01433711     0.00066667    F
 
 
--------
Geometry
--------
Formula: H4BrO4Pa
Atoms
  Index Symbol   x (angstrom)   y (angstrom)   z (angstrom)
      1     Pa     0.34212957    -0.02279061     0.06189648       adf.R=2.200
      2      O     0.97493206     1.62867641    -1.03116480       adf.R=1.517
      3      H     1.32549513     1.93121197    -1.87927651       adf.R=1.350
      4      O    -1.38070992     1.05221640     0.65099551       adf.R=1.517
      5      H    -1.67324125     1.92904657     0.36919440       adf.R=1.350
      6      O     0.46142431    -1.14947617    -1.72089820       adf.R=1.517
      7      H     0.16688562    -2.04899925    -1.91458499       adf.R=1.350
      8      O    -0.40430518    -1.68410778     1.05016352       adf.R=1.517
      9      H    -1.02407788    -2.09859803     1.66371542       adf.R=1.350
     10     Br     2.70440170     0.00819768     1.66150253       adf.R=1.850
 
Total System Charge             0.00000
Bonding info available!
 
 *** GO1_GOStep10 ***

 SOLVATION
-------------------------------------------

  The Delley construction of COSMO surface surface is calculated

       Division Level for Surface Triangles (NDIV)                  3
       Final Division Level for Triangles (NFDIV)                   1
       Radius of the Solvent (RSOL)                           1.93000 angstr
  Dielectric Constant (EPSL)                                 78.39000

       COSMO equation is solved iteratively-               conjugate-gradient

       Maximun of Iterations for Charges (NCIX)                  1000
       Criterion for Charge convergence (CCNV)                1.0E-08

  COSMO charges included variationally in SCF

       COSMO included at every SCF cycle

  Geometry-dependent empirical factor                         0.00000

  C-Matrix calculated in cspmtx

  In cspmtx, C-Matrix calculated using fitted potential

-------------------------------------------



 -------------------------------------------
  COSMO surface
  Area             =          532.685
  Volume           =          844.414
  Number of Points =         1306
 -------------------------------------------



 ======================
 RI Hartree-Fock Scheme
 ======================
  
 Fit Set Quality     : GOOD
 Threshold Quality   : GOOD
 Integration Quality : GOOD
 Response Quality    : DEFAULT
 Is Range Separated  :  F
 
 RIHartreeFock Dependency: number of modified vectors:           4
 cosmo_calcen: 0.5 (esolb+esolc) (Hartrees) =   -0.037175

 Solvation energy (screening term,uncorrected) =    -23.327694 kcal/mol

 Solvation energy (dispersion and cavitation terms) =      0.996080 kcal/mol
 Solvation Energy Contributions (Hartrees)
          esola   esolb+esolc
     0.03717504   -0.07435009
 esol last cycle   -0.03717504
  
 Hartree-Fock exchange energy:   -591.706334378547     
 cosmo_calcen: 0.5 (esolb+esolc) (Hartrees) =   -0.037175

 Solvation energy (screening term,uncorrected) =    -23.327698 kcal/mol

 Solvation energy (dispersion and cavitation terms) =      0.996080 kcal/mol
 Solvation Energy Contributions (Hartrees)
          esola   esolb+esolc
     0.03717505   -0.07435010
 esol last cycle   -0.03717505

 Energy gradients wrt nuclear displacements
 ==========================================

     Atom      Cartesian (a.u./angstrom)
                 X         Y         Z
 ----------------------------------------
     1 Pa    0.002102  0.000065  0.001563
     2 O    -0.002385 -0.002600  0.000671
     3 H     0.000698  0.001124 -0.000868
     4 O     0.000347 -0.001424  0.000502
     5 H     0.000015  0.001123 -0.000726
     6 O     0.000382  0.001496 -0.000150
     7 H    -0.000692 -0.001223  0.000109
     8 O    -0.000874  0.002693 -0.002551
     9 H     0.000009 -0.001329  0.001125
    10 Br    0.000399  0.000077  0.000323
 ----------------------------------------
 Mulliken charges used for AMS results%charges...

 dE(predicted):    -0.96435E-04, dE(actual):    -0.59411E-04, Trust radius:    0.400000, all in a.u.
 
----------------------------------------------------------------------
Geometry Convergence after Step  10       (Hartree/Angstrom,Angstrom)
----------------------------------------------------------------------
current energy                               -2.65887840 Hartree
energy change                      -0.00005941     0.00001000    F
constrained gradient max            0.00268590     0.00010000    F
constrained gradient rms            0.00127357     0.00006667    F
gradient max                        0.00268590
gradient rms                        0.00127357
cart. step max                      0.01536283     0.00100000    F
cart. step rms                      0.00774238     0.00066667    F
 
 
--------
Geometry
--------
Formula: H4BrO4Pa
Atoms
  Index Symbol   x (angstrom)   y (angstrom)   z (angstrom)
      1     Pa     0.34155491    -0.02151975     0.06277692       adf.R=2.200
      2      O     0.99029489     1.63524292    -1.01903186       adf.R=1.517
      3      H     1.32470394     1.91769936    -1.88040260       adf.R=1.350
      4      O    -1.38940434     1.04530671     0.65163828       adf.R=1.517
      5      H    -1.68129622     1.91990427     0.36229292       adf.R=1.350
      6      O     0.46400843    -1.14218051    -1.72645363       adf.R=1.517
      7      H     0.16119176    -2.04018194    -1.91445299       adf.R=1.350
      8      O    -0.39003225    -1.68715453     1.06026791       adf.R=1.517
      9      H    -1.02929948    -2.08549741     1.66434756       adf.R=1.350
     10     Br     2.70121253     0.00375807     1.65056085       adf.R=1.850
 
Total System Charge             0.00000
Bonding info available!
 
 *** GO1_GOStep11 ***

 SOLVATION
-------------------------------------------

  The Delley construction of COSMO surface surface is calculated

       Division Level for Surface Triangles (NDIV)                  3
       Final Division Level for Triangles (NFDIV)                   1
       Radius of the Solvent (RSOL)                           1.93000 angstr
  Dielectric Constant (EPSL)                                 78.39000

       COSMO equation is solved iteratively-               conjugate-gradient

       Maximun of Iterations for Charges (NCIX)                  1000
       Criterion for Charge convergence (CCNV)                1.0E-08

  COSMO charges included variationally in SCF

       COSMO included at every SCF cycle

  Geometry-dependent empirical factor                         0.00000

  C-Matrix calculated in cspmtx

  In cspmtx, C-Matrix calculated using fitted potential

-------------------------------------------



 -------------------------------------------
  COSMO surface
  Area             =          532.251
  Volume           =          844.963
  Number of Points =         1301
 -------------------------------------------



 ======================
 RI Hartree-Fock Scheme
 ======================
  
 Fit Set Quality     : GOOD
 Threshold Quality   : GOOD
 Integration Quality : GOOD
 Response Quality    : DEFAULT
 Is Range Separated  :  F
 
 RIHartreeFock Dependency: number of modified vectors:           4
 cosmo_calcen: 0.5 (esolb+esolc) (Hartrees) =   -0.037484

 Solvation energy (screening term,uncorrected) =    -23.521733 kcal/mol

 Solvation energy (dispersion and cavitation terms) =      0.995267 kcal/mol
 Solvation Energy Contributions (Hartrees)
          esola   esolb+esolc
     0.03748426   -0.07496853
 esol last cycle   -0.03748426
  
 Hartree-Fock exchange energy:   -591.705258027008     
 cosmo_calcen: 0.5 (esolb+esolc) (Hartrees) =   -0.037484

 Solvation energy (screening term,uncorrected) =    -23.521738 kcal/mol

 Solvation energy (dispersion and cavitation terms) =      0.995267 kcal/mol
 Solvation Energy Contributions (Hartrees)
          esola   esolb+esolc
     0.03748427   -0.07496854
 esol last cycle   -0.03748427

 Energy gradients wrt nuclear displacements
 ==========================================

     Atom      Cartesian (a.u./angstrom)
                 X         Y         Z
 ----------------------------------------
     1 Pa    0.003223 -0.000049  0.002300
     2 O    -0.000946 -0.001195  0.000113
     3 H     0.000429  0.000803 -0.000660
     4 O    -0.001018 -0.000928  0.001282
     5 H     0.000302  0.000953 -0.000870
     6 O     0.000761  0.000929 -0.001621
     7 H    -0.000773 -0.001034  0.000462
     8 O    -0.000971  0.001551 -0.001153
     9 H     0.000077 -0.001115  0.000873
    10 Br   -0.001085  0.000085 -0.000725
 ----------------------------------------
 Mulliken charges used for AMS results%charges...

 dE(predicted):    -0.59903E-04, dE(actual):    -0.66619E-04, Trust radius:    0.400000, all in a.u.
 
----------------------------------------------------------------------
Geometry Convergence after Step  11       (Hartree/Angstrom,Angstrom)
----------------------------------------------------------------------
current energy                               -2.65894502 Hartree
energy change                      -0.00006662     0.00001000    F
constrained gradient max            0.00321969     0.00010000    F
constrained gradient rms            0.00113894     0.00006667    F
gradient max                        0.00321969
gradient rms                        0.00113894
cart. step max                      0.01116344     0.00100000    F
cart. step rms                      0.00572716     0.00066667    F
 
 
--------
Geometry
--------
Formula: H4BrO4Pa
Atoms
  Index Symbol   x (angstrom)   y (angstrom)   z (angstrom)
      1     Pa     0.33511648    -0.02081776     0.05845300       adf.R=2.200
      2      O     1.00145833     1.63820404    -1.01200681       adf.R=1.517
      3      H     1.33384238     1.91293635    -1.87626845       adf.R=1.350
      4      O    -1.39744849     1.04350964     0.64886775       adf.R=1.517
      5      H    -1.69145621     1.91783589     0.36200615       adf.R=1.350
      6      O     0.46056574    -1.14122636    -1.73098155       adf.R=1.517
      7      H     0.15915462    -2.03919527    -1.91955105       adf.R=1.350
      8      O    -0.37948846    -1.68802398     1.06818479       adf.R=1.517
      9      H    -1.02490392    -2.07874773     1.67016074       adf.R=1.350
     10     Br     2.69609370     0.00090237     1.64267880       adf.R=1.850
 
Total System Charge             0.00000
Bonding info available!
 
 *** GO1_GOStep12 ***

 SOLVATION
-------------------------------------------

  The Delley construction of COSMO surface surface is calculated

       Division Level for Surface Triangles (NDIV)                  3
       Final Division Level for Triangles (NFDIV)                   1
       Radius of the Solvent (RSOL)                           1.93000 angstr
  Dielectric Constant (EPSL)                                 78.39000

       COSMO equation is solved iteratively-               conjugate-gradient

       Maximun of Iterations for Charges (NCIX)                  1000
       Criterion for Charge convergence (CCNV)                1.0E-08

  COSMO charges included variationally in SCF

       COSMO included at every SCF cycle

  Geometry-dependent empirical factor                         0.00000

  C-Matrix calculated in cspmtx

  In cspmtx, C-Matrix calculated using fitted potential

-------------------------------------------



 -------------------------------------------
  COSMO surface
  Area             =          532.478
  Volume           =          845.522
  Number of Points =         1305
 -------------------------------------------



 ======================
 RI Hartree-Fock Scheme
 ======================
  
 Fit Set Quality     : GOOD
 Threshold Quality   : GOOD
 Integration Quality : GOOD
 Response Quality    : DEFAULT
 Is Range Separated  :  F
 
 RIHartreeFock Dependency: number of modified vectors:           4
 cosmo_calcen: 0.5 (esolb+esolc) (Hartrees) =   -0.037826

 Solvation energy (screening term,uncorrected) =    -23.736385 kcal/mol

 Solvation energy (dispersion and cavitation terms) =      0.995693 kcal/mol
 Solvation Energy Contributions (Hartrees)
          esola   esolb+esolc
     0.03782633   -0.07565267
 esol last cycle   -0.03782633
  
 Hartree-Fock exchange energy:   -591.705329084176     
 cosmo_calcen: 0.5 (esolb+esolc) (Hartrees) =   -0.037826

 Solvation energy (screening term,uncorrected) =    -23.736390 kcal/mol

 Solvation energy (dispersion and cavitation terms) =      0.995693 kcal/mol
 Solvation Energy Contributions (Hartrees)
          esola   esolb+esolc
     0.03782634   -0.07565268
 esol last cycle   -0.03782634

 Energy gradients wrt nuclear displacements
 ==========================================

     Atom      Cartesian (a.u./angstrom)
                 X         Y         Z
 ----------------------------------------
     1 Pa    0.002531 -0.000050  0.001657
     2 O     0.000205 -0.000362 -0.000429
     3 H     0.000101  0.000477 -0.000037
     4 O    -0.001690 -0.000146  0.001451
     5 H     0.000589  0.000348 -0.000711
     6 O     0.000731  0.000091 -0.002134
     7 H    -0.000567 -0.000374  0.000720
     8 O    -0.001048  0.000695  0.000010
     9 H     0.000498 -0.000750  0.000384
    10 Br   -0.001352  0.000072 -0.000910
 ----------------------------------------
 Mulliken charges used for AMS results%charges...

 dE(predicted):    -0.26564E-04, dE(actual):    -0.59833E-04, Trust radius:    0.400000, all in a.u.
 
----------------------------------------------------------------------
Geometry Convergence after Step  12       (Hartree/Angstrom,Angstrom)
----------------------------------------------------------------------
current energy                               -2.65900485 Hartree
energy change                      -0.00005983     0.00001000    F
constrained gradient max            0.00252750     0.00010000    F
constrained gradient rms            0.00094812     0.00006667    F
gradient max                        0.00252750
gradient rms                        0.00094812
cart. step max                      0.00676145     0.00100000    F
cart. step rms                      0.00312229     0.00066667    F
 
 
--------
Geometry
--------
Formula: H4BrO4Pa
Atoms
  Index Symbol   x (angstrom)   y (angstrom)   z (angstrom)
      1     Pa     0.33184870    -0.02028684     0.05635167       adf.R=2.200
      2      O     1.00620405     1.64009190    -1.00805985       adf.R=1.517
      3      H     1.33572846     1.90824512    -1.87520421       adf.R=1.350
      4      O    -1.40067538     1.04287749     0.64725742       adf.R=1.517
      5      H    -1.69784285     1.91723434     0.36490880       adf.R=1.350
      6      O     0.45952859    -1.14129452    -1.73168700       adf.R=1.517
      7      H     0.16146866    -2.03943721    -1.92294651       adf.R=1.350
      8      O    -0.37306917    -1.68843735     1.07217924       adf.R=1.517
      9      H    -1.02614492    -2.07198628     1.67008644       adf.R=1.350
     10     Br     2.69588804    -0.00162948     1.63865736       adf.R=1.850
 
Total System Charge             0.00000
Bonding info available!
 
 *** GO1_GOStep13 ***

 SOLVATION
-------------------------------------------

  The Delley construction of COSMO surface surface is calculated

       Division Level for Surface Triangles (NDIV)                  3
       Final Division Level for Triangles (NFDIV)                   1
       Radius of the Solvent (RSOL)                           1.93000 angstr
  Dielectric Constant (EPSL)                                 78.39000

       COSMO equation is solved iteratively-               conjugate-gradient

       Maximun of Iterations for Charges (NCIX)                  1000
       Criterion for Charge convergence (CCNV)                1.0E-08

  COSMO charges included variationally in SCF

       COSMO included at every SCF cycle

  Geometry-dependent empirical factor                         0.00000

  C-Matrix calculated in cspmtx

  In cspmtx, C-Matrix calculated using fitted potential

-------------------------------------------



 -------------------------------------------
  COSMO surface
  Area             =          532.680
  Volume           =          845.975
  Number of Points =         1306
 -------------------------------------------



 ======================
 RI Hartree-Fock Scheme
 ======================
  
 Fit Set Quality     : GOOD
 Threshold Quality   : GOOD
 Integration Quality : GOOD
 Response Quality    : DEFAULT
 Is Range Separated  :  F
 
 RIHartreeFock Dependency: number of modified vectors:           4
 cosmo_calcen: 0.5 (esolb+esolc) (Hartrees) =   -0.038082

 Solvation energy (screening term,uncorrected) =    -23.896663 kcal/mol

 Solvation energy (dispersion and cavitation terms) =      0.996071 kcal/mol
 Solvation Energy Contributions (Hartrees)
          esola   esolb+esolc
     0.03808175   -0.07616351
 esol last cycle   -0.03808175
  
 Hartree-Fock exchange energy:   -591.706135621356     
 cosmo_calcen: 0.5 (esolb+esolc) (Hartrees) =   -0.038082

 Solvation energy (screening term,uncorrected) =    -23.896659 kcal/mol

 Solvation energy (dispersion and cavitation terms) =      0.996071 kcal/mol
 Solvation Energy Contributions (Hartrees)
          esola   esolb+esolc
     0.03808175   -0.07616349
 esol last cycle   -0.03808175

 Energy gradients wrt nuclear displacements
 ==========================================

     Atom      Cartesian (a.u./angstrom)
                 X         Y         Z
 ----------------------------------------
     1 Pa    0.001681 -0.000213  0.000953
     2 O     0.000695 -0.000083 -0.000651
     3 H    -0.000133  0.000234  0.000438
     4 O    -0.001817  0.000411  0.001313
     5 H     0.000774 -0.000163 -0.000526
     6 O     0.000572 -0.000464 -0.002080
     7 H    -0.000365  0.000193  0.000870
     8 O    -0.001030  0.000485  0.000487
     9 H     0.000855 -0.000449  0.000004
    10 Br   -0.001232  0.000049 -0.000808
 ----------------------------------------
 Mulliken charges used for AMS results%charges...

 dE(predicted):    -0.14966E-04, dE(actual):    -0.37701E-04, Trust radius:    0.400000, all in a.u.
 
----------------------------------------------------------------------
Geometry Convergence after Step  13       (Hartree/Angstrom,Angstrom)
----------------------------------------------------------------------
current energy                               -2.65904255 Hartree
energy change                      -0.00003770     0.00001000    F
constrained gradient max            0.00207850     0.00010000    F
constrained gradient rms            0.00084599     0.00006667    F
gradient max                        0.00207850
gradient rms                        0.00084599
cart. step max                      0.02130850     0.00100000    F
cart. step rms                      0.00894331     0.00066667    F
 
 
--------
Geometry
--------
Formula: H4BrO4Pa
Atoms
  Index Symbol   x (angstrom)   y (angstrom)   z (angstrom)
      1     Pa     0.32969029    -0.01844917     0.05630592       adf.R=2.200
      2      O     1.01305886     1.64495015    -1.00012052       adf.R=1.517
      3      H     1.32682219     1.89078200    -1.87930151       adf.R=1.350
      4      O    -1.40300896     1.04110017     0.64607715       adf.R=1.517
      5      H    -1.71102530     1.91514455     0.37691853       adf.R=1.350
      6      O     0.46232534    -1.14057141    -1.72774011       adf.R=1.517
      7      H     0.17394947    -2.03903301    -1.92876787       adf.R=1.350
      8      O    -0.35935790    -1.68960876     1.08016099       adf.R=1.517
      9      H    -1.04281001    -2.05067778     1.65726044       adf.R=1.350
     10     Br     2.70329018    -0.00825956     1.63075033       adf.R=1.850
 
Total System Charge             0.00000
Bonding info available!
 
 *** GO1_GOStep14 ***

 SOLVATION
-------------------------------------------

  The Delley construction of COSMO surface surface is calculated

       Division Level for Surface Triangles (NDIV)                  3
       Final Division Level for Triangles (NFDIV)                   1
       Radius of the Solvent (RSOL)                           1.93000 angstr
  Dielectric Constant (EPSL)                                 78.39000

       COSMO equation is solved iteratively-               conjugate-gradient

       Maximun of Iterations for Charges (NCIX)                  1000
       Criterion for Charge convergence (CCNV)                1.0E-08

  COSMO charges included variationally in SCF

       COSMO included at every SCF cycle

  Geometry-dependent empirical factor                         0.00000

  C-Matrix calculated in cspmtx

  In cspmtx, C-Matrix calculated using fitted potential

-------------------------------------------



 -------------------------------------------
  COSMO surface
  Area             =          531.931
  Volume           =          845.650
  Number of Points =         1300
 -------------------------------------------



 ======================
 RI Hartree-Fock Scheme
 ======================
  
 Fit Set Quality     : GOOD
 Threshold Quality   : GOOD
 Integration Quality : GOOD
 Response Quality    : DEFAULT
 Is Range Separated  :  F
 
 RIHartreeFock Dependency: number of modified vectors:           4
 cosmo_calcen: 0.5 (esolb+esolc) (Hartrees) =   -0.038640

 Solvation energy (screening term,uncorrected) =    -24.247055 kcal/mol

 Solvation energy (dispersion and cavitation terms) =      0.994670 kcal/mol
 Solvation Energy Contributions (Hartrees)
          esola   esolb+esolc
     0.03864014   -0.07728028
 esol last cycle   -0.03864014
  
 Hartree-Fock exchange energy:   -591.708420116703     
 cosmo_calcen: 0.5 (esolb+esolc) (Hartrees) =   -0.038640

 Solvation energy (screening term,uncorrected) =    -24.247055 kcal/mol

 Solvation energy (dispersion and cavitation terms) =      0.994670 kcal/mol
 Solvation Energy Contributions (Hartrees)
          esola   esolb+esolc
     0.03864014   -0.07728028
 esol last cycle   -0.03864014

 Energy gradients wrt nuclear displacements
 ==========================================

     Atom      Cartesian (a.u./angstrom)
                 X         Y         Z
 ----------------------------------------
     1 Pa   -0.000052 -0.000486 -0.000480
     2 O     0.001240  0.000150 -0.000734
     3 H    -0.000554 -0.000244  0.001212
     4 O    -0.001638  0.001331  0.000839
     5 H     0.001029 -0.001063 -0.000149
     6 O     0.000179 -0.001337 -0.001499
     7 H     0.000002  0.001182  0.001071
     8 O    -0.000668  0.000413  0.000882
     9 H     0.001383  0.000074 -0.000598
    10 Br   -0.000922 -0.000020 -0.000544
 ----------------------------------------
 Mulliken charges used for AMS results%charges...

 dE(predicted):    -0.39422E-04, dE(actual):    -0.53830E-04, Trust radius:    0.400000, all in a.u.
 
----------------------------------------------------------------------
Geometry Convergence after Step  14       (Hartree/Angstrom,Angstrom)
----------------------------------------------------------------------
current energy                               -2.65909638 Hartree
energy change                      -0.00005383     0.00001000    F
constrained gradient max            0.00166786     0.00010000    F
constrained gradient rms            0.00087887     0.00006667    F
gradient max                        0.00166786
gradient rms                        0.00087887
cart. step max                      0.02975040     0.00100000    F
cart. step rms                      0.01269531     0.00066667    F
 
 
--------
Geometry
--------
Formula: H4BrO4Pa
Atoms
  Index Symbol   x (angstrom)   y (angstrom)   z (angstrom)
      1     Pa     0.33329167    -0.01647492     0.06132994       adf.R=2.200
      2      O     1.01479109     1.64894887    -0.99598191       adf.R=1.517
      3      H     1.30708584     1.86846678    -1.88952450       adf.R=1.350
      4      O    -1.39939838     1.03930503     0.64768029       adf.R=1.517
      5      H    -1.72302232     1.91262782     0.39637495       adf.R=1.350
      6      O     0.46979691    -1.13968903    -1.71804276       adf.R=1.517
      7      H     0.19485247    -2.03837017    -1.93468729       adf.R=1.350
      8      O    -0.35016769    -1.69001898     1.08797054       adf.R=1.517
      9      H    -1.07256041    -2.02534671     1.63238549       adf.R=1.350
     10     Br     2.71826500    -0.01407152     1.62403862       adf.R=1.850
 
Total System Charge             0.00000
Bonding info available!
 
 *** GO1_GOStep15 ***

 SOLVATION
-------------------------------------------

  The Delley construction of COSMO surface surface is calculated

       Division Level for Surface Triangles (NDIV)                  3
       Final Division Level for Triangles (NFDIV)                   1
       Radius of the Solvent (RSOL)                           1.93000 angstr
  Dielectric Constant (EPSL)                                 78.39000

       COSMO equation is solved iteratively-               conjugate-gradient

       Maximun of Iterations for Charges (NCIX)                  1000
       Criterion for Charge convergence (CCNV)                1.0E-08

  COSMO charges included variationally in SCF

       COSMO included at every SCF cycle

  Geometry-dependent empirical factor                         0.00000

  C-Matrix calculated in cspmtx

  In cspmtx, C-Matrix calculated using fitted potential

-------------------------------------------



 -------------------------------------------
  COSMO surface
  Area             =          532.128
  Volume           =          846.170
  Number of Points =         1299
 -------------------------------------------



 ======================
 RI Hartree-Fock Scheme
 ======================
  
 Fit Set Quality     : GOOD
 Threshold Quality   : GOOD
 Integration Quality : GOOD
 Response Quality    : DEFAULT
 Is Range Separated  :  F
 
 RIHartreeFock Dependency: number of modified vectors:           4
 cosmo_calcen: 0.5 (esolb+esolc) (Hartrees) =   -0.039028

 Solvation energy (screening term,uncorrected) =    -24.490736 kcal/mol

 Solvation energy (dispersion and cavitation terms) =      0.995038 kcal/mol
 Solvation Energy Contributions (Hartrees)
          esola   esolb+esolc
     0.03902847   -0.07805694
 esol last cycle   -0.03902847
  
 Hartree-Fock exchange energy:   -591.710279660805     
 cosmo_calcen: 0.5 (esolb+esolc) (Hartrees) =   -0.039028

 Solvation energy (screening term,uncorrected) =    -24.490735 kcal/mol

 Solvation energy (dispersion and cavitation terms) =      0.995038 kcal/mol
 Solvation Energy Contributions (Hartrees)
          esola   esolb+esolc
     0.03902847   -0.07805693
 esol last cycle   -0.03902847

 Energy gradients wrt nuclear displacements
 ==========================================

     Atom      Cartesian (a.u./angstrom)
                 X         Y         Z
 ----------------------------------------
     1 Pa   -0.001281 -0.000808 -0.001424
     2 O     0.001149  0.000084 -0.000300
     3 H    -0.000709 -0.000528  0.001304
     4 O    -0.000923  0.001625  0.000324
     5 H     0.000980 -0.001378  0.000118
     6 O    -0.000160 -0.001477 -0.000497
     7 H     0.000223  0.001495  0.001004
     8 O    -0.000194  0.000668  0.000565
     9 H     0.001498  0.000387 -0.000825
    10 Br   -0.000583 -0.000068 -0.000269
 ----------------------------------------
 Mulliken charges used for AMS results%charges...

 dE(predicted):    -0.38709E-04, dE(actual):    -0.50572E-05, Trust radius:    0.038348, all in a.u.
 
----------------------------------------------------------------------
Geometry Convergence after Step  15       (Hartree/Angstrom,Angstrom)
----------------------------------------------------------------------
current energy                               -2.65910144 Hartree
energy change                      -0.00000506     0.00001000    T
constrained gradient max            0.00159483     0.00010000    F
constrained gradient rms            0.00090738     0.00006667    F
gradient max                        0.00159483
gradient rms                        0.00090738
cart. step max                      0.01560231     0.00100000    F
cart. step rms                      0.00634545     0.00066667    F
 
 
--------
Geometry
--------
Formula: H4BrO4Pa
Atoms
  Index Symbol   x (angstrom)   y (angstrom)   z (angstrom)
      1     Pa     0.33831709    -0.01661653     0.06580981       adf.R=2.200
      2      O     1.00952332     1.64805456    -0.99997973       adf.R=1.517
      3      H     1.29905496     1.86179010    -1.89625315       adf.R=1.350
      4      O    -1.39362836     1.03849396     0.64947732       adf.R=1.517
      5      H    -1.72717610     1.91123585     0.40839191       adf.R=1.350
      6      O     0.47460883    -1.13965759    -1.71195774       adf.R=1.517
      7      H     0.20739591    -2.03786821    -1.94108613       adf.R=1.350
      8      O    -0.35455312    -1.68971393     1.08864149       adf.R=1.517
      9      H    -1.08816273    -2.01573786     1.62450478       adf.R=1.350
     10     Br     2.72755436    -0.01460317     1.62399481       adf.R=1.850
 
Total System Charge             0.00000
Bonding info available!
 
 *** GO1_GOStep16 ***

 SOLVATION
-------------------------------------------

  The Delley construction of COSMO surface surface is calculated

       Division Level for Surface Triangles (NDIV)                  3
       Final Division Level for Triangles (NFDIV)                   1
       Radius of the Solvent (RSOL)                           1.93000 angstr
  Dielectric Constant (EPSL)                                 78.39000

       COSMO equation is solved iteratively-               conjugate-gradient

       Maximun of Iterations for Charges (NCIX)                  1000
       Criterion for Charge convergence (CCNV)                1.0E-08

  COSMO charges included variationally in SCF

       COSMO included at every SCF cycle

  Geometry-dependent empirical factor                         0.00000

  C-Matrix calculated in cspmtx

  In cspmtx, C-Matrix calculated using fitted potential

-------------------------------------------



 -------------------------------------------
  COSMO surface
  Area             =          532.836
  Volume           =          847.215
  Number of Points =         1296
 -------------------------------------------



 ======================
 RI Hartree-Fock Scheme
 ======================
  
 Fit Set Quality     : GOOD
 Threshold Quality   : GOOD
 Integration Quality : GOOD
 Response Quality    : DEFAULT
 Is Range Separated  :  F
 
 RIHartreeFock Dependency: number of modified vectors:           4
 cosmo_calcen: 0.5 (esolb+esolc) (Hartrees) =   -0.038851

 Solvation energy (screening term,uncorrected) =    -24.379310 kcal/mol

 Solvation energy (dispersion and cavitation terms) =      0.996362 kcal/mol
 Solvation Energy Contributions (Hartrees)
          esola   esolb+esolc
     0.03885090   -0.07770180
 esol last cycle   -0.03885090
  
 Hartree-Fock exchange energy:   -591.709714755409     
 cosmo_calcen: 0.5 (esolb+esolc) (Hartrees) =   -0.038851

 Solvation energy (screening term,uncorrected) =    -24.379303 kcal/mol

 Solvation energy (dispersion and cavitation terms) =      0.996362 kcal/mol
 Solvation Energy Contributions (Hartrees)
          esola   esolb+esolc
     0.03885089   -0.07770178
 esol last cycle   -0.03885089

 Energy gradients wrt nuclear displacements
 ==========================================

     Atom      Cartesian (a.u./angstrom)
                 X         Y         Z
 ----------------------------------------
     1 Pa   -0.000979 -0.000806 -0.001096
     2 O     0.000543 -0.000166  0.000157
     3 H    -0.000471 -0.000336  0.000611
     4 O    -0.000225  0.000952  0.000121
     5 H     0.000545 -0.000768  0.000119
     6 O    -0.000179 -0.000704  0.000087
     7 H     0.000117  0.000803  0.000596
     8 O     0.000113  0.000971 -0.000118
     9 H     0.000866  0.000106 -0.000365
[...]
    30          3819.8610             360.1803

 Zero-point energy (Hartree):     0.0465

 ------------
 Normal Modes
 ------------

 Number of removed rigid normal modes: 6
 
 Mode:     7      Frequency (cm-1):       44.4471     Intensity (km/mol):        2.6139
 Index  Atom      ---- Displacements (x/y/z) ----
     1    Pa      -0.009611   0.028642   0.035500
     2     O      -0.021478   0.096248   0.128696
     3     H      -0.010494   0.143784   0.151895
     4     O      -0.079319  -0.237858  -0.386193
     5     H      -0.117068  -0.403354  -0.587548
     6     O       0.227884  -0.035998   0.084956
     7     H       0.252171   0.023750  -0.056269
     8     O      -0.018487   0.108362   0.143649
     9     H      -0.011826   0.081555   0.116016
    10    Br       0.004686  -0.067844  -0.093270
 
 Mode:     8      Frequency (cm-1):       79.4743     Intensity (km/mol):       16.4296
 Index  Atom      ---- Displacements (x/y/z) ----
     1    Pa       0.001775  -0.031302  -0.037968
     2     O       0.009836   0.112300   0.206880
     3     H       0.033827   0.342709   0.316805
     4     O       0.018269   0.023007   0.045134
     5     H       0.069042   0.123578   0.138885
     6     O      -0.054804   0.011255  -0.047952
     7     H      -0.156463   0.237795  -0.394797
     8     O       0.009310   0.157678   0.220691
     9     H      -0.005189   0.332130   0.503954
    10    Br      -0.000920   0.016742   0.017851
 
 Mode:     9      Frequency (cm-1):       91.5452     Intensity (km/mol):        0.9453
 Index  Atom      ---- Displacements (x/y/z) ----
     1    Pa       0.019868   0.048254  -0.036224
     2     O      -0.208147   0.098768  -0.129883
     3     H      -0.299784   0.040868  -0.164411
     4     O      -0.106429  -0.257485   0.196060
     5     H      -0.349546  -0.402086   0.235568
     6     O       0.007547   0.033290  -0.032757
     7     H       0.156624  -0.107511   0.099676
     8     O       0.310044   0.003026   0.074407
     9     H       0.316661   0.088163   0.268744
    10    Br      -0.056528  -0.111596   0.078579
 
 Mode:    10      Frequency (cm-1):      111.9603     Intensity (km/mol):      101.3498
 Index  Atom      ---- Displacements (x/y/z) ----
     1    Pa      -0.010006  -0.000523  -0.004150
     2     O       0.002811  -0.007305   0.008449
     3     H       0.711379  -0.323577  -0.083537
     4     O      -0.030211   0.024000   0.112826
     5     H       0.148801   0.209429   0.196467
     6     O       0.191336  -0.023940   0.011539
     7     H       0.397613  -0.115043  -0.009682
     8     O      -0.005666   0.011477   0.012431
     9     H      -0.031451   0.146347   0.175915
    10    Br      -0.018445   0.001731  -0.020854
 
 Mode:    11      Frequency (cm-1):      121.1193     Intensity (km/mol):       21.8715
 Index  Atom      ---- Displacements (x/y/z) ----
     1    Pa       0.012814  -0.006013  -0.000786
     2     O      -0.160208   0.060566  -0.015285
     3     H      -0.710714   0.359918   0.081385
     4     O       0.042181   0.073927   0.040813
     5     H       0.083749   0.140226   0.094666
     6     O       0.100611  -0.062371   0.020542
     7     H       0.296173  -0.251539   0.202991
     8     O      -0.122054   0.030759  -0.035405
     9     H      -0.177924   0.169156   0.017298
    10    Br      -0.002749  -0.008583  -0.004923
 
 Mode:    12      Frequency (cm-1):      135.4821     Intensity (km/mol):      100.6491
 Index  Atom      ---- Displacements (x/y/z) ----
     1    Pa      -0.007090   0.000845  -0.001679
     2     O       0.137503  -0.021816   0.070994
     3     H      -0.213877   0.314941   0.201007
     4     O       0.044380   0.073969  -0.019309
     5     H      -0.196466  -0.111291  -0.039196
     6     O       0.000868  -0.048684  -0.005064
     7     H       0.349011  -0.475654   0.497187
     8     O       0.138654  -0.061937  -0.004720
     9     H       0.172571   0.014495   0.276826
    10    Br      -0.045807   0.012665  -0.015526
 
 Mode:    13      Frequency (cm-1):      150.4950     Intensity (km/mol):       60.7821
 Index  Atom      ---- Displacements (x/y/z) ----
     1    Pa       0.089548  -0.020163   0.024757
     2     O      -0.008518   0.021884  -0.034536
     3     H      -0.027540  -0.115651  -0.099292
     4     O       0.046753  -0.062267  -0.005417
     5     H       0.213600   0.073265   0.019654
     6     O       0.010256  -0.012898   0.029319
     7     H      -0.468391   0.449634  -0.413958
     8     O      -0.014428  -0.006733   0.042184
     9     H      -0.043265  -0.193846  -0.439175
    10    Br      -0.264902   0.068467  -0.066961
 
 Mode:    14      Frequency (cm-1):      155.5933     Intensity (km/mol):       55.5096
 Index  Atom      ---- Displacements (x/y/z) ----
     1    Pa      -0.002559   0.013426  -0.015311
     2     O      -0.040930   0.083603   0.095108
     3     H       0.286282   0.171252   0.161572
     4     O      -0.016523   0.018540  -0.004250
     5     H       0.197585   0.304753   0.190188
     6     O      -0.027873  -0.207192   0.147313
     7     H      -0.273937  -0.006180  -0.007866
     8     O       0.054040  -0.025541  -0.037122
     9     H       0.190466  -0.519211  -0.473438
    10    Br       0.008718  -0.012206   0.005729
 
 Mode:    15      Frequency (cm-1):      175.2542     Intensity (km/mol):       58.0659
 Index  Atom      ---- Displacements (x/y/z) ----
     1    Pa       0.018077   0.009100  -0.006251
     2     O       0.055623   0.023990   0.070658
     3     H       0.319851   0.032688   0.094962
     4     O      -0.047821  -0.159820   0.071166
     5     H      -0.193350  -0.268195   0.063864
     6     O      -0.093796  -0.064131   0.000255
     7     H      -0.142620  -0.311702   0.533728
     8     O      -0.148021   0.019608  -0.077757
     9     H      -0.326377   0.425890   0.023354
    10    Br      -0.001119   0.011463  -0.003879
 
 Mode:    16      Frequency (cm-1):      198.5891     Intensity (km/mol):      410.8393
 Index  Atom      ---- Displacements (x/y/z) ----
     1    Pa       0.013393  -0.007973   0.007379
     2     O      -0.158118   0.055688   0.016226
     3     H       0.464365  -0.201783  -0.055084
     4     O      -0.000700   0.047915  -0.103370
     5     H       0.442369   0.236706  -0.287237
     6     O      -0.114305   0.044522  -0.050668
     7     H       0.125750  -0.297391   0.388716
     8     O       0.041326  -0.016452  -0.016891
     9     H       0.070065   0.077833   0.280128
    10    Br      -0.006308  -0.000988   0.005582
 
 Mode:    17      Frequency (cm-1):      234.9505     Intensity (km/mol):      579.9698
 Index  Atom      ---- Displacements (x/y/z) ----
     1    Pa       0.004189  -0.004547  -0.005185
     2     O       0.007883   0.011899   0.015160
     3     H       0.048407  -0.060457  -0.015941
     4     O      -0.011993   0.002879   0.040502
     5     H      -0.052020  -0.201755  -0.216017
     6     O      -0.061917   0.043577   0.007606
     7     H       0.636897  -0.254833  -0.081010
     8     O      -0.034361   0.054644   0.065601
     9     H       0.012860  -0.348191  -0.537193
    10    Br      -0.000170   0.001460  -0.000084
 
 Mode:    18      Frequency (cm-1):      267.2783     Intensity (km/mol):      155.9479
 Index  Atom      ---- Displacements (x/y/z) ----
     1    Pa       0.002139   0.000381  -0.002778
     2     O      -0.028997   0.064249   0.015076
     3     H       0.082210  -0.202792  -0.101014
     4     O       0.046905   0.064092   0.015749
     5     H      -0.279804  -0.439615  -0.378052
     6     O      -0.042617  -0.051392   0.109382
     7     H       0.206809   0.134252  -0.493319
     8     O       0.008845  -0.073268  -0.057590
     9     H      -0.113552   0.330285   0.253666
    10    Br      -0.001715   0.000409   0.000566
 
 Mode:    19      Frequency (cm-1):      287.5587     Intensity (km/mol):       31.9943
 Index  Atom      ---- Displacements (x/y/z) ----
     1    Pa       0.001040   0.002184   0.000903
     2     O       0.049937   0.022442   0.001588
     3     H      -0.239742  -0.205360  -0.129061
     4     O      -0.016027  -0.063117  -0.065892
     5     H       0.109483   0.451679   0.554195
     6     O      -0.071680   0.009054   0.052376
     7     H       0.436656  -0.078185  -0.264953
     8     O       0.009882  -0.031498  -0.012758
     9     H      -0.113141   0.240776   0.044724
    10    Br       0.000139   0.001178  -0.000256
 
 Mode:    20      Frequency (cm-1):      303.5893     Intensity (km/mol):      286.6243
 Index  Atom      ---- Displacements (x/y/z) ----
     1    Pa      -0.005597  -0.004622  -0.001918
     2     O      -0.011187   0.090040   0.043353
     3     H      -0.120138  -0.605722  -0.293396
     4     O       0.079459   0.038973  -0.030354
     5     H      -0.367300  -0.089178   0.248348
     6     O       0.031212  -0.006376  -0.041651
     7     H      -0.241351  -0.058238   0.320027
     8     O       0.022432  -0.008255   0.057493
     9     H      -0.128757   0.084691  -0.338646
    10    Br       0.002628  -0.001115   0.000584
 
 Mode:    21      Frequency (cm-1):      319.1475     Intensity (km/mol):      325.6411
 Index  Atom      ---- Displacements (x/y/z) ----
     1    Pa       0.000231  -0.004548  -0.001277
     2     O       0.077181   0.072478   0.033400
     3     H      -0.427570  -0.468736  -0.262761
     4     O      -0.072798  -0.012933   0.050360
     5     H       0.315345   0.020159  -0.306472
     6     O       0.009683  -0.016521   0.010800
     7     H      -0.073553  -0.009383   0.075582
     8     O      -0.020912   0.067713  -0.064125
     9     H       0.277382  -0.310750   0.346362
    10    Br      -0.000458   0.000687  -0.000549
 
 Mode:    22      Frequency (cm-1):      343.7361     Intensity (km/mol):      243.7759
 Index  Atom      ---- Displacements (x/y/z) ----
     1    Pa      -0.003847   0.003155  -0.003979
     2     O       0.031268  -0.012355   0.019196
     3     H      -0.202259  -0.021405  -0.005092
     4     O      -0.063114   0.007164   0.037062
     5     H       0.481008   0.090245  -0.410437
     6     O       0.017296  -0.010269  -0.001586
     7     H      -0.093691   0.020382   0.044494
     8     O       0.061281  -0.062030   0.048603
     9     H      -0.337997   0.482527  -0.418392
    10    Br       0.003745  -0.000832   0.000798
 
 Mode:    23      Frequency (cm-1):      500.3595     Intensity (km/mol):       61.7073
 Index  Atom      ---- Displacements (x/y/z) ----
     1    Pa       0.022233  -0.003812   0.008627
     2     O      -0.096089  -0.200719   0.144989
     3     H      -0.149228  -0.313895   0.084236
     4     O      -0.262415   0.136903  -0.051233
     5     H      -0.630205   0.014572   0.160496
     6     O      -0.008185  -0.062815  -0.064307
     7     H       0.027918   0.004945  -0.228554
     8     O       0.105441   0.179127  -0.134940
     9     H      -0.000178   0.321128  -0.248774
    10    Br      -0.002541   0.000178  -0.000904
 
 Mode:    24      Frequency (cm-1):      527.0694     Intensity (km/mol):      250.4913
 Index  Atom      ---- Displacements (x/y/z) ----
     1    Pa       0.024719  -0.005029  -0.033312
     2     O      -0.018528  -0.039592   0.028964
     3     H      -0.077388  -0.063104   0.012840
     4     O      -0.231851   0.103212  -0.029666
     5     H      -0.400052   0.074831   0.106696
     6     O       0.031121   0.206850   0.267889
     7     H      -0.189836   0.147164   0.589740
     8     O      -0.102164  -0.189149   0.146031
     9     H      -0.023090  -0.268729   0.285928
    10    Br       0.001594  -0.000355   0.001063
 
 Mode:    25      Frequency (cm-1):      539.8296     Intensity (km/mol):      442.3075
 Index  Atom      ---- Displacements (x/y/z) ----
     1    Pa       0.008909   0.044543  -0.014221
     2     O      -0.096371  -0.239699   0.186407
     3     H      -0.298002  -0.534466   0.028294
     4     O       0.094707  -0.053363   0.021210
     5     H       0.211177  -0.031230  -0.070206
     6     O      -0.016988  -0.106062  -0.126547
     7     H       0.094838  -0.084177  -0.273762
     8     O      -0.110909  -0.176563   0.121933
     9     H       0.060393  -0.389760   0.354593
    10    Br      -0.000695  -0.000447  -0.000007
 
 Mode:    26      Frequency (cm-1):      631.3077     Intensity (km/mol):      208.1641
 Index  Atom      ---- Displacements (x/y/z) ----
     1    Pa       0.018269   0.005584   0.023952
     2     O       0.091521   0.222619  -0.150607
     3     H       0.152883   0.289999  -0.117587
     4     O      -0.280285   0.118598  -0.031987
     5     H      -0.409164   0.086836   0.046175
     6     O      -0.019626  -0.207750  -0.298341
     7     H       0.064189  -0.183493  -0.437828
     8     O      -0.098001  -0.195972   0.141241
     9     H      -0.067851  -0.239490   0.185188
    10    Br       0.011936  -0.003090   0.002866
 
 Mode:    27      Frequency (cm-1):     3784.9014     Intensity (km/mol):      375.1398
 Index  Atom      ---- Displacements (x/y/z) ----
     1    Pa      -0.000020  -0.000026   0.000034
     2     O      -0.000418  -0.002525   0.005458
     3     H       0.006863   0.040990  -0.087725
     4     O       0.001475  -0.002282   0.001620
     5     H      -0.028081   0.039842  -0.027142
     6     O       0.000816   0.001551   0.000559
     7     H      -0.012889  -0.026285  -0.013095
     8     O      -0.053828  -0.027308   0.014074
     9     H       0.860829   0.436890  -0.225046
    10    Br       0.000032  -0.000007   0.000009
 
 Mode:    28      Frequency (cm-1):     3792.7877     Intensity (km/mol):      265.9036
 Index  Atom      ---- Displacements (x/y/z) ----
     1    Pa       0.000019   0.000029  -0.000011
     2     O       0.004486   0.026241  -0.055614
     3     H      -0.071770  -0.418751   0.888221
     4     O       0.003666  -0.005568   0.003880
     5     H      -0.064117   0.090220  -0.061709
     6     O       0.001310   0.002522   0.001159
     7     H      -0.021635  -0.044426  -0.022318
     8     O      -0.004780  -0.002470   0.001270
     9     H       0.075888   0.038588  -0.020296
    10    Br       0.000039  -0.000015   0.000016
 
 Mode:    29      Frequency (cm-1):     3808.4215     Intensity (km/mol):      359.3730
 Index  Atom      ---- Displacements (x/y/z) ----
     1    Pa       0.000020  -0.000038  -0.000001
     2     O      -0.000749  -0.003217   0.006560
     3     H       0.008565   0.047902  -0.102333
     4     O       0.031428  -0.043763   0.029918
     5     H      -0.498439   0.697172  -0.477812
     6     O      -0.003270  -0.006355  -0.003085
     7     H       0.051620   0.105185   0.053873
     8     O       0.003410   0.001994  -0.001066
     9     H      -0.053604  -0.027163   0.013975
    10    Br      -0.000023   0.000007  -0.000006
 
 Mode:    30      Frequency (cm-1):     3819.8610     Intensity (km/mol):      360.1803
 Index  Atom      ---- Displacements (x/y/z) ----
     1    Pa       0.000005   0.000020   0.000006
     2     O      -0.000458  -0.002102   0.003837
     3     H       0.004837   0.027924  -0.058633
     4     O       0.004149  -0.005480   0.003619
     5     H      -0.060112   0.084597  -0.057927
     6     O       0.024757   0.050664   0.026102
     7     H      -0.395757  -0.805958  -0.411708
     8     O       0.002573   0.001482  -0.000933
     9     H      -0.038861  -0.019327   0.010183
    10    Br      -0.000045   0.000012  -0.000013

PES point character: Geometry corresponds to a local minimum on the PES.




 ============================
 Statistical Thermal Analysis  ***  ideal gas assumed  ***
 ============================
  
 Pressure:                  1.000000 atm.
 Temperature:             298.150000 K



 Moments of Inertia [amu*bohr^2] and principal axis
 ==================================================

         841.8621       2553.4032       2829.4725
 ------------------------------------------------
           0.9371          0.3441          0.0584
          -0.2444          0.7665         -0.5939
           0.2491         -0.5423         -0.8024


 The rotational contribution to the molecular entropy includes
 a term, dependent on the symmetry number sigma. The results 
 reported below were computed using sigma = 1, determined from
 the point group symmetry of the input geometry (NOSYM). 
 If this is not the correct symmetry, try symmetrizing the molecule before
 running the calculation (note: linear molecules should be aligned along one
 of the Cartesian axes).
 Contributions from frequencies below 20 1/cm are not included in vibrational sums.
 Their contributions, if any, are reported separately.


     Temp                                                        Transl      Rotat     Vibrat     Total
     ----                                                        ------      -----     ------     -----

     298.15   Entropy (cal/mol-K):                               43.681     30.187     42.623    116.491
              Nuclear Internal Energy (kcal/mol):                 0.889      0.889     35.627     37.404
              Constant Volume Heat Capacity (cal/mol-K):          2.981      2.981     33.877     39.839
          (c) Constant Volume Heat Capacity (cal/mol-K):          2.981      2.981     30.309     36.271

       Summary of energy terms
                                                   hartree              eV         kcal/mol           kJ/mol
                                      --------------------     -----------       ----------      -----------
      Energy from Engine:               -2.658733820101798        -72.3478         -1668.38         -6980.50
      Nuclear Internal Energy:           0.059607048280907          1.6220            37.40           156.50
  (c) Nuclear Internal Energy:           0.057746899439462          1.5714            36.24           151.61
      Internal Energy U:                -2.599126771820891        -70.7258         -1630.98         -6824.01
      pV/n = RT:                         0.000944186013486          0.0257             0.59             2.48
      Enthalpy H:                       -2.598182585807405        -70.7001         -1630.38         -6821.53
      -T*S:                             -0.055348829745611         -1.5061           -34.73          -145.32
  (c) -T*S:                             -0.054036085977843         -1.4704           -33.91          -141.87
      Gibbs free energy:                -2.653531415553016        -72.2063         -1665.12         -6966.85
 
 
 
  (c) The properties marked with this symbol have been corrected using 'low vibrational frequency free rotor
      interpolation corrections'. For those terms all positive frequencies are used (also ones below 20 1/cm),
      but the contribution to the partition function of small vibrational frequencies is modified as described
      in the following paper:
      S. Grimme, 'Supramolecular Binding Thermodynamics by Dispersion-Corrected Density Functional Theory'
      (Chem. Eur. J. 2012, 18, 9955-9964)
      Configuration: Dampener Frequency          :   100.000 1/cm
                     Dampener Alpha              :     4.000
                     Averaging Moment of Inertia : 1.000E-44 kg m2

--------------
Atomic charges
--------------
  Index   Atom    Charge
      1     Pa    2.7862
      2      O   -0.6443
      3      H    0.1207
      4      O   -0.6838
      5      H    0.1322
      6      O   -0.6817
      7      H    0.1260
      8      O   -0.6556
      9      H    0.1338
     10     Br   -0.6337


Dipole moment vector    (Debye):    -7.67423071    2.77536123   -1.57616906
              magnitude (Debye):     8.31148338


Final PES point is a local minimum. Geometry optimization successful!


AMS application finished. Exiting.
NORMAL TERMINATION
     Total cpu time:   77861.32
  Total system time:    2377.94
 Total elapsed time:   80300.77
