

 Parallel Execution: Process Information
 ==============================================================================
 Rank   Node Name                              NodeID   MyNodeRank  NodeMaster
    0   u-0-12.local                              0          0          0
    1   u-0-12.local                              0          1         -1
    2   u-0-12.local                              1          0          1
    3   u-0-12.local                              1          1         -1
    4   u-0-12.local                              2          0          2
    5   u-0-12.local                              2          1         -1
    6   u-0-12.local                              3          0          3
    7   u-0-12.local                              3          1         -1
 ==============================================================================


May use up to 31200MB of RAM as shared memory on node 0
May use up to 31250MB of RAM as shared memory on node 1
May use up to 31250MB of RAM as shared memory on node 2
May use up to 31250MB of RAM as shared memory on node 3

 *******************************************************************************
 *                                                                             *
 *  --------------------------------                                           *
 *   Amsterdam Modeling Suite (AMS)              2022.103                      *
 *  --------------------------------                                           *
 *                                               r104886 2022-06-17            *
 *                                                                             *
 *                                                                             *
 *                              =================                              *
 *                              |               |                              *
 *                              |     A M S     |                              *
 *                              |               |                              *
 *                              =================                              *
 *                                                                             *
 *                                                                             *
 *   Online information and documentation:  https://www.scm.com/support/       *
 *   E-mail:  support@scm.com   info@scm.com                                   *
 *                                                                             *
 *   Scientific publications using AMS results must be properly referenced     *
 *   See the User Manuals (or the web site) for recommended citations          *
 *   The terms and conditions of the End User License Agreement apply to       *
 *   the use of AMS, https://www.scm.com/license-terms/                        *
 *                                                                             *
 **********************  x86_64_linux_intel / intelmpi  ************************
 
 Licensed to: Dr. Val?rie Vallet / Laboratoire PhLAM UMR 8523 / Villeneuve d'Ascq Cedex / FRANCE 2023-02-21 11:49:39
 SCM User ID: u10325
  
 AMS 2022.103  RunTime: Mar06-2023 10:31:57  ShM Nodes: 4  Procs: 8

 AMS jobname: ams
 AMS jobid  : 373445505

 Start   directory: /home/shaaban/ams/PhD/iodide/pa_oh4_I/solvation/B21/
 Results directory: /home/shaaban/ams/PhD/iodide/pa_oh4_I/solvation/B21/pa_oh4_I.SR.b3lyp.tz2p.opt-freq-B21-solvation.results/
 Scratch directory: /state/partition2/shaaban/930557.phlam-s-sakura/amstmp_ams_kid0.373445505/


 Communication costs MPI_COMM_WORLD:      1.549 usec per message,   0.0109 usec per 8-byte item
 Communication costs for intra-node:      0.372 usec per message,   0.0028 usec per 8-byte item

 RNG seed: 939997893 1032103485 1098809351 2054086497 -1487673053 488009893 1694354817 -145788554



                      ************************************************************************
                      *  ADF 2022.103  RunTime: Mar06-2023 10:31:58  ShM Nodes: 4  Procs: 8  *
                      ************************************************************************
  
       ***************************
       *  GEOMETRY OPTIMIZATION  *
       ***************************

Optimization Method                    Quasi Newton
Optimization Coordinates               Delocalized Coordinates
Optimize lattice                       F
 
 ------------------------------------------------------
 Convergence criteria (Hartree,Angstrom)
 ------------------------------------------------------
 Maximum gradient               0.000100000000
 Maximum rms gradient           0.000066666667
 Maximum step allowed           0.001000000000
 Maximum rms step allowed       0.000666666667
 Maximum energy change allowe   0.000010000000
 Maximum stress energy allowe   0.000500000000
 
Initial model Hessian                  Automatic Hessian
 
------------------------------------
Quasi-Newton Optimizer Parameters
------------------------------------
Hessian Update Method                  BFGS
Maximum number of steps                  250
First GDIIS cycle                          0
Maximum GDIIS vectors                      0
Trust radius (bohr)                        0.200000
Trust radius varies                        T
Constraints converged at all steps         T
Use projector                              T
 
 Rigid motions settings for: old optimizer
 Atomic rotations (x,y,z):     T T T
 Atomic translations (x,y,z):  T T T
 Tolerance:                   1.000000000000000E-006
 
--------
Geometry
--------
Formula: H4IO4Pa
Atoms
  Index Symbol   x (angstrom)   y (angstrom)   z (angstrom)
      1     Pa     0.30323497    -0.03407434     0.01622143       adf.R=2.200
      2      O     1.01136914     1.56595253    -1.09616182       adf.R=1.517
      3      H     1.49098001     2.05754291    -1.76800696       adf.R=1.350
      4      O    -1.37346940     1.10622923     0.55650812       adf.R=1.517
      5      H    -1.76953737     1.97463454     0.44407024       adf.R=1.350
      6      O     0.34498340    -1.23182787    -1.70406430       adf.R=1.517
      7      H     0.17721798    -2.11341667    -2.04720749       adf.R=1.350
      8      O    -0.43868996    -1.63476290     1.10097369       adf.R=1.517
      9      H    -0.86435069    -2.17832350     1.76868416       adf.R=1.350
     10      I     2.76614259     0.03913366     1.75033965       adf.R=1.967
 
Total System Charge             0.00000
Bonding info available!
 
 
----------------
ADF Engine Input
----------------
 
 Basis
 Type TZ2P
 Core None
 End
 XC
 Hybrid B3LYP
 End
 Solvation
 Surf Delley
 Solv name=Water cav0=0.0 cav1=0.0067639
 Charged method=CONJ
 C-Mat POT
 SCF VAR ALL
 CSMRSP
 End
 NumericalQuality Good
 

 Title: *** (NO TITLE) ***

 Using automatic Hessian for delocalized coordinates.
 *** GO1_GOStep1 ***

 SOLVATION
-------------------------------------------

  The Delley construction of COSMO surface surface is calculated

       Division Level for Surface Triangles (NDIV)                  3
       Final Division Level for Triangles (NFDIV)                   1
       Radius of the Solvent (RSOL)                           1.93000 angstr
  Dielectric Constant (EPSL)                                 78.39000

       COSMO equation is solved iteratively-               conjugate-gradient

       Maximun of Iterations for Charges (NCIX)                  1000
       Criterion for Charge convergence (CCNV)                1.0E-08

  COSMO charges included variationally in SCF

       COSMO included at every SCF cycle

  Geometry-dependent empirical factor                         0.00000

  C-Matrix calculated in cspmtx

  In cspmtx, C-Matrix calculated using fitted potential

-------------------------------------------



 -------------------------------------------
  COSMO surface
  Area             =          554.585
  Volume           =          880.326
  Number of Points =         1326
 -------------------------------------------



 ======================
 RI Hartree-Fock Scheme
 ======================
  
 Fit Set Quality     : GOOD
 Threshold Quality   : GOOD
 Integration Quality : GOOD
 Response Quality    : DEFAULT
 Is Range Separated  :  F
 
 RIHartreeFock Dependency: number of modified vectors:           4
 cosmo_calcen: 0.5 (esolb+esolc) (Hartrees) =   -0.029422

 Solvation energy (screening term,uncorrected) =    -18.462879 kcal/mol

 Solvation energy (dispersion and cavitation terms) =      1.037032 kcal/mol
 Solvation Energy Contributions (Hartrees)
          esola   esolb+esolc
     0.02942247   -0.05884493
 esol last cycle   -0.02942247
  
 Hartree-Fock exchange energy:   -680.622262665192     
 cosmo_calcen: 0.5 (esolb+esolc) (Hartrees) =   -0.029422

 Solvation energy (screening term,uncorrected) =    -18.462882 kcal/mol

 Solvation energy (dispersion and cavitation terms) =      1.037032 kcal/mol
 Solvation Energy Contributions (Hartrees)
          esola   esolb+esolc
     0.02942247   -0.05884495
 esol last cycle   -0.02942247

 Energy gradients wrt nuclear displacements
 ==========================================

     Atom      Cartesian (a.u./angstrom)
                 X         Y         Z
 ----------------------------------------
     1 Pa    0.015623  0.000565  0.011221
     2 O    -0.000397 -0.000040 -0.005407
     3 H    -0.002415 -0.001979  0.005359
     4 O     0.002399  0.004965 -0.004965
     5 H     0.000310 -0.005197  0.002479
     6 O    -0.003794 -0.005256  0.003148
     7 H     0.002088  0.005464 -0.000346
     8 O    -0.004828 -0.000988  0.001358
     9 H     0.003900  0.002760 -0.003924
    10 I    -0.012886 -0.000295 -0.008922
 ----------------------------------------
 Mulliken charges used for AMS results%charges...
 
----------------------------------------------------------------------
Geometry Convergence after Step   1       (Hartree/Angstrom,Angstrom)
----------------------------------------------------------------------
current energy                               -2.62319254 Hartree
energy change                      -2.62319254     0.00001000    F
constrained gradient max            0.01562252     0.00010000    F
constrained gradient rms            0.00554624     0.00006667    F
gradient max                        0.01562252
gradient rms                        0.00554624
cart. step max                      0.01753460     0.00100000    F
cart. step rms                      0.00716784     0.00066667    F
 
 
--------
Geometry
--------
Formula: H4IO4Pa
Atoms
  Index Symbol   x (angstrom)   y (angstrom)   z (angstrom)
      1     Pa     0.29227684    -0.03369897     0.00901677       adf.R=2.200
      2      O     1.02020067     1.56794756    -1.09048918       adf.R=1.517
      3      H     1.50851461     2.05711013    -1.76224107       adf.R=1.350
      4      O    -1.38616928     1.10338676     0.55632461       adf.R=1.517
      5      H    -1.77854054     1.97567852     0.43854708       adf.R=1.350
      6      O     0.34100882    -1.22889853    -1.71435134       adf.R=1.517
      7      H     0.17017357    -2.11492735    -2.05210795       adf.R=1.350
      8      O    -0.43140122    -1.63533819     1.10686102       adf.R=1.517
      9      H    -0.85270164    -2.17806550     1.78243417       adf.R=1.350
     10      I     2.76451885     0.03789318     1.74736261       adf.R=1.967
 
Total System Charge             0.00000
Bonding info available!
 
 *** GO1_GOStep2 ***

 SOLVATION
-------------------------------------------

  The Delley construction of COSMO surface surface is calculated

       Division Level for Surface Triangles (NDIV)                  3
       Final Division Level for Triangles (NFDIV)                   1
       Radius of the Solvent (RSOL)                           1.93000 angstr
  Dielectric Constant (EPSL)                                 78.39000

       COSMO equation is solved iteratively-               conjugate-gradient

       Maximun of Iterations for Charges (NCIX)                  1000
       Criterion for Charge convergence (CCNV)                1.0E-08

  COSMO charges included variationally in SCF

       COSMO included at every SCF cycle

  Geometry-dependent empirical factor                         0.00000

  C-Matrix calculated in cspmtx

  In cspmtx, C-Matrix calculated using fitted potential

-------------------------------------------



 -------------------------------------------
  COSMO surface
  Area             =          555.492
  Volume           =          882.224
  Number of Points =         1323
 -------------------------------------------



 ======================
 RI Hartree-Fock Scheme
 ======================
  
 Fit Set Quality     : GOOD
 Threshold Quality   : GOOD
 Integration Quality : GOOD
 Response Quality    : DEFAULT
 Is Range Separated  :  F
 
 RIHartreeFock Dependency: number of modified vectors:           4
 cosmo_calcen: 0.5 (esolb+esolc) (Hartrees) =   -0.030007

 Solvation energy (screening term,uncorrected) =    -18.829841 kcal/mol

 Solvation energy (dispersion and cavitation terms) =      1.038726 kcal/mol
 Solvation Energy Contributions (Hartrees)
          esola   esolb+esolc
     0.03000726   -0.06001452
 esol last cycle   -0.03000726
  
 Hartree-Fock exchange energy:   -680.612879208505     
 cosmo_calcen: 0.5 (esolb+esolc) (Hartrees) =   -0.030007

 Solvation energy (screening term,uncorrected) =    -18.829840 kcal/mol

 Solvation energy (dispersion and cavitation terms) =      1.038726 kcal/mol
 Solvation Energy Contributions (Hartrees)
          esola   esolb+esolc
     0.03000726   -0.06001451
 esol last cycle   -0.03000726

 Energy gradients wrt nuclear displacements
 ==========================================

     Atom      Cartesian (a.u./angstrom)
                 X         Y         Z
 ----------------------------------------
     1 Pa    0.013366  0.000434  0.009469
     2 O    -0.001808 -0.001899 -0.001934
     3 H     0.000362  0.000979  0.001326
     4 O     0.003293  0.001014 -0.003638
     5 H    -0.001569 -0.000848  0.001844
     6 O    -0.002575 -0.001124  0.003786
     7 H     0.001186  0.000911 -0.002012
     8 O    -0.002342  0.001311 -0.001158
     9 H     0.001270 -0.000556  0.000032
    10 I    -0.011181 -0.000222 -0.007716
 ----------------------------------------
 Mulliken charges used for AMS results%charges...

 dE(predicted):    -0.20199E-03, dE(actual):    -0.38231E-03, Trust radius:    0.200000, all in a.u.
 
----------------------------------------------------------------------
Geometry Convergence after Step   2       (Hartree/Angstrom,Angstrom)
----------------------------------------------------------------------
current energy                               -2.62357486 Hartree
energy change                      -0.00038231     0.00001000    F
constrained gradient max            0.01336522     0.00010000    F
constrained gradient rms            0.00423170     0.00006667    F
gradient max                        0.01336522
gradient rms                        0.00423170
cart. step max                      0.03972401     0.00100000    F
cart. step rms                      0.01857809     0.00066667    F
 
 
--------
Geometry
--------
Formula: H4IO4Pa
Atoms
  Index Symbol   x (angstrom)   y (angstrom)   z (angstrom)
      1     Pa     0.26094528    -0.03175339    -0.01034980       adf.R=2.200
      2      O     1.04097553     1.57387191    -1.07235144       adf.R=1.517
      3      H     1.54823862     2.04887223    -1.74479045       adf.R=1.350
      4      O    -1.42256453     1.09518915     0.55742227       adf.R=1.517
      5      H    -1.79662621     1.97535216     0.41657589       adf.R=1.350
      6      O     0.33237280    -1.21851138    -1.74263718       adf.R=1.517
      7      H     0.14834684    -2.11423080    -2.05560741       adf.R=1.350
      8      O    -0.41029485    -1.63732757     1.11892125       adf.R=1.517
      9      H    -0.82029518    -2.17284858     1.81149338       adf.R=1.350
     10      I     2.76678240     0.03247386     1.74268020       adf.R=1.967
 
Total System Charge             0.00000
Bonding info available!
 
 *** GO1_GOStep3 ***

 SOLVATION
-------------------------------------------

  The Delley construction of COSMO surface surface is calculated

       Division Level for Surface Triangles (NDIV)                  3
       Final Division Level for Triangles (NFDIV)                   1
       Radius of the Solvent (RSOL)                           1.93000 angstr
  Dielectric Constant (EPSL)                                 78.39000

       COSMO equation is solved iteratively-               conjugate-gradient

       Maximun of Iterations for Charges (NCIX)                  1000
       Criterion for Charge convergence (CCNV)                1.0E-08

  COSMO charges included variationally in SCF

       COSMO included at every SCF cycle

  Geometry-dependent empirical factor                         0.00000

  C-Matrix calculated in cspmtx

  In cspmtx, C-Matrix calculated using fitted potential

-------------------------------------------



 -------------------------------------------
  COSMO surface
  Area             =          557.821
  Volume           =          887.650
  Number of Points =         1331
 -------------------------------------------



 ======================
 RI Hartree-Fock Scheme
 ======================
  
 Fit Set Quality     : GOOD
 Threshold Quality   : GOOD
 Integration Quality : GOOD
 Response Quality    : DEFAULT
 Is Range Separated  :  F
 
 RIHartreeFock Dependency: number of modified vectors:           4
 cosmo_calcen: 0.5 (esolb+esolc) (Hartrees) =   -0.031961

 Solvation energy (screening term,uncorrected) =    -20.055940 kcal/mol

 Solvation energy (dispersion and cavitation terms) =      1.043082 kcal/mol
 Solvation Energy Contributions (Hartrees)
          esola   esolb+esolc
     0.03196117   -0.06392234
 esol last cycle   -0.03196117
  
 Hartree-Fock exchange energy:   -680.597142281834     
 cosmo_calcen: 0.5 (esolb+esolc) (Hartrees) =   -0.031961

 Solvation energy (screening term,uncorrected) =    -20.055940 kcal/mol

 Solvation energy (dispersion and cavitation terms) =      1.043082 kcal/mol
 Solvation Energy Contributions (Hartrees)
          esola   esolb+esolc
     0.03196117   -0.06392234
 esol last cycle   -0.03196117

 Energy gradients wrt nuclear displacements
 ==========================================

     Atom      Cartesian (a.u./angstrom)
                 X         Y         Z
 ----------------------------------------
     1 Pa    0.005660  0.000334  0.003795
     2 O    -0.001071 -0.002362  0.001075
     3 H     0.003101  0.003765 -0.002681
     4 O     0.002374 -0.002984 -0.000761
     5 H    -0.003117  0.004058  0.000744
     6 O    -0.000420  0.003205  0.002534
     7 H    -0.000002 -0.004326 -0.003326
     8 O     0.000400  0.002056 -0.001500
     9 H    -0.001285 -0.003707  0.003911
    10 I    -0.005641 -0.000039 -0.003791
 ----------------------------------------
 Mulliken charges used for AMS results%charges...

 dE(predicted):    -0.46507E-03, dE(actual):    -0.47834E-03, Trust radius:    0.400000, all in a.u.
 
----------------------------------------------------------------------
Geometry Convergence after Step   3       (Hartree/Angstrom,Angstrom)
----------------------------------------------------------------------
current energy                               -2.62405319 Hartree
energy change                      -0.00047834     0.00001000    F
constrained gradient max            0.00566014     0.00010000    F
constrained gradient rms            0.00292931     0.00006667    F
gradient max                        0.00566014
gradient rms                        0.00292931
cart. step max                      0.01464004     0.00100000    F
cart. step rms                      0.00633781     0.00066667    F
 
 
--------
Geometry
--------
Formula: H4IO4Pa
Atoms
  Index Symbol   x (angstrom)   y (angstrom)   z (angstrom)
      1     Pa     0.25177197    -0.03024100    -0.01503491       adf.R=2.200
      2      O     1.04205266     1.57856407    -1.06401209       adf.R=1.517
      3      H     1.54994091     2.04274069    -1.74259014       adf.R=1.350
      4      O    -1.43409177     1.09102996     0.56152665       adf.R=1.517
      5      H    -1.79435123     1.97305537     0.40193585       adf.R=1.350
      6      O     0.33483700    -1.21233611    -1.75096355       adf.R=1.517
      7      H     0.13935780    -2.11129143    -2.04473165       adf.R=1.350
      8      O    -0.40422852    -1.63943019     1.11711215       adf.R=1.517
      9      H    -0.81604493    -2.16925880     1.81205082       adf.R=1.350
     10      I     2.77863678     0.02825504     1.74606359       adf.R=1.967
 
Total System Charge             0.00000
Bonding info available!
 
 *** GO1_GOStep4 ***

 SOLVATION
-------------------------------------------

  The Delley construction of COSMO surface surface is calculated

       Division Level for Surface Triangles (NDIV)                  3
       Final Division Level for Triangles (NFDIV)                   1
       Radius of the Solvent (RSOL)                           1.93000 angstr
  Dielectric Constant (EPSL)                                 78.39000

       COSMO equation is solved iteratively-               conjugate-gradient

       Maximun of Iterations for Charges (NCIX)                  1000
       Criterion for Charge convergence (CCNV)                1.0E-08

  COSMO charges included variationally in SCF

       COSMO included at every SCF cycle

  Geometry-dependent empirical factor                         0.00000

  C-Matrix calculated in cspmtx

  In cspmtx, C-Matrix calculated using fitted potential

-------------------------------------------



 -------------------------------------------
  COSMO surface
  Area             =          558.448
  Volume           =          889.409
  Number of Points =         1328
 -------------------------------------------



 ======================
 RI Hartree-Fock Scheme
 ======================
  
 Fit Set Quality     : GOOD
 Threshold Quality   : GOOD
 Integration Quality : GOOD
 Response Quality    : DEFAULT
 Is Range Separated  :  F
 
 RIHartreeFock Dependency: number of modified vectors:           4
 cosmo_calcen: 0.5 (esolb+esolc) (Hartrees) =   -0.033023

 Solvation energy (screening term,uncorrected) =    -20.722148 kcal/mol

 Solvation energy (dispersion and cavitation terms) =      1.044255 kcal/mol
 Solvation Energy Contributions (Hartrees)
          esola   esolb+esolc
     0.03302284   -0.06604568
 esol last cycle   -0.03302284
  
 Hartree-Fock exchange energy:   -680.596387463822     
 cosmo_calcen: 0.5 (esolb+esolc) (Hartrees) =   -0.033023

 Solvation energy (screening term,uncorrected) =    -20.722146 kcal/mol

 Solvation energy (dispersion and cavitation terms) =      1.044255 kcal/mol
 Solvation Energy Contributions (Hartrees)
          esola   esolb+esolc
     0.03302284   -0.06604568
 esol last cycle   -0.03302284

 Energy gradients wrt nuclear displacements
 ==========================================

     Atom      Cartesian (a.u./angstrom)
                 X         Y         Z
 ----------------------------------------
     1 Pa    0.001519  0.000274  0.000768
     2 O     0.000413 -0.001415  0.000209
     3 H     0.002321  0.003027 -0.001772
     4 O     0.001104 -0.001251 -0.000328
     5 H    -0.002069  0.002293  0.000786
     6 O    -0.000434  0.001179  0.001312
     7 H     0.000301 -0.002245 -0.002274
     8 O     0.000112  0.001017  0.000070
     9 H    -0.000736 -0.002902  0.002887
    10 I    -0.002530  0.000023 -0.001658
 ----------------------------------------
 Mulliken charges used for AMS results%charges...

 dE(predicted):    -0.14210E-03, dE(actual):    -0.43747E-03, Trust radius:    0.400000, all in a.u.
 
----------------------------------------------------------------------
Geometry Convergence after Step   4       (Hartree/Angstrom,Angstrom)
----------------------------------------------------------------------
current energy                               -2.62449066 Hartree
energy change                      -0.00043747     0.00001000    F
constrained gradient max            0.00305368     0.00010000    F
constrained gradient rms            0.00160219     0.00006667    F
gradient max                        0.00305368
gradient rms                        0.00160219
cart. step max                      0.03150803     0.00100000    F
cart. step rms                      0.01391722     0.00066667    F
 
 
--------
Geometry
--------
Formula: H4IO4Pa
Atoms
  Index Symbol   x (angstrom)   y (angstrom)   z (angstrom)
      1     Pa     0.25036062    -0.02760550    -0.01283808       adf.R=2.200
      2      O     1.03010714     1.58854395    -1.05377473       adf.R=1.517
      3      H     1.52525575     2.03330888    -1.75182539       adf.R=1.350
      4      O    -1.43934809     1.08507812     0.57264411       adf.R=1.517
      5      H    -1.77508604     1.96836889     0.37621320       adf.R=1.350
      6      O     0.34931843    -1.20180799    -1.75382155       adf.R=1.517
      7      H     0.12939232    -2.10470293    -2.01322362       adf.R=1.350
      8      O    -0.40235305    -1.64508851     1.10420229       adf.R=1.517
      9      H    -0.82986772    -2.16517638     1.79429757       adf.R=1.350
     10      I     2.81010131     0.02016906     1.75948289       adf.R=1.967
 
Total System Charge             0.00000
Bonding info available!
 
 *** GO1_GOStep5 ***

 SOLVATION
-------------------------------------------

  The Delley construction of COSMO surface surface is calculated

       Division Level for Surface Triangles (NDIV)                  3
       Final Division Level for Triangles (NFDIV)                   1
       Radius of the Solvent (RSOL)                           1.93000 angstr
  Dielectric Constant (EPSL)                                 78.39000

       COSMO equation is solved iteratively-               conjugate-gradient

       Maximun of Iterations for Charges (NCIX)                  1000
       Criterion for Charge convergence (CCNV)                1.0E-08

  COSMO charges included variationally in SCF

       COSMO included at every SCF cycle

  Geometry-dependent empirical factor                         0.00000

  C-Matrix calculated in cspmtx

  In cspmtx, C-Matrix calculated using fitted potential

-------------------------------------------



 -------------------------------------------
  COSMO surface
  Area             =          558.170
  Volume           =          890.016
  Number of Points =         1325
 -------------------------------------------



 ======================
 RI Hartree-Fock Scheme
 ======================
  
 Fit Set Quality     : GOOD
 Threshold Quality   : GOOD
 Integration Quality : GOOD
 Response Quality    : DEFAULT
 Is Range Separated  :  F
 
 RIHartreeFock Dependency: number of modified vectors:           4
 cosmo_calcen: 0.5 (esolb+esolc) (Hartrees) =   -0.034521

 Solvation energy (screening term,uncorrected) =    -21.662540 kcal/mol

 Solvation energy (dispersion and cavitation terms) =      1.043735 kcal/mol
 Solvation Energy Contributions (Hartrees)
          esola   esolb+esolc
     0.03452145   -0.06904290
 esol last cycle   -0.03452145
  
 Hartree-Fock exchange energy:   -680.598361312592     
 cosmo_calcen: 0.5 (esolb+esolc) (Hartrees) =   -0.034521

 Solvation energy (screening term,uncorrected) =    -21.662535 kcal/mol

 Solvation energy (dispersion and cavitation terms) =      1.043735 kcal/mol
 Solvation Energy Contributions (Hartrees)
          esola   esolb+esolc
     0.03452144   -0.06904289
 esol last cycle   -0.03452144

 Energy gradients wrt nuclear displacements
 ==========================================

     Atom      Cartesian (a.u./angstrom)
                 X         Y         Z
 ----------------------------------------
     1 Pa   -0.003628  0.000311 -0.003213
     2 O     0.002003 -0.000242 -0.001858
     3 H     0.000243  0.001068  0.000963
     4 O     0.000339  0.000299 -0.000030
     5 H    -0.000712  0.000225  0.000683
     6 O    -0.000437 -0.000449  0.000632
     7 H     0.000512 -0.000119 -0.000986
     8 O    -0.001248 -0.000490  0.002275
     9 H     0.000972 -0.000678  0.000044
    10 I     0.001955  0.000075  0.001489
 ----------------------------------------
 Mulliken charges used for AMS results%charges...

 dE(predicted):    -0.19929E-03, dE(actual):    -0.25590E-03, Trust radius:    0.400000, all in a.u.
 
----------------------------------------------------------------------
Geometry Convergence after Step   5       (Hartree/Angstrom,Angstrom)
----------------------------------------------------------------------
current energy                               -2.62474656 Hartree
energy change                      -0.00025590     0.00001000    F
constrained gradient max            0.00362833     0.00010000    F
constrained gradient rms            0.00130267     0.00006667    F
gradient max                        0.00362833
gradient rms                        0.00130267
cart. step max                      0.03363375     0.00100000    F
cart. step rms                      0.01420037     0.00066667    F
 
 
--------
Geometry
--------
Formula: H4IO4Pa
Atoms
  Index Symbol   x (angstrom)   y (angstrom)   z (angstrom)
      1     Pa     0.26067904    -0.02600847    -0.00287856       adf.R=2.200
      2      O     1.01369163     1.59534330    -1.05090460       adf.R=1.517
      3      H     1.49162201     2.02745254    -1.76784783       adf.R=1.350
      4      O    -1.43194941     1.08259913     0.58185970       adf.R=1.517
      5      H    -1.75373822     1.96490258     0.36216847       adf.R=1.350
      6      O     0.36536425    -1.19522640    -1.74667021       adf.R=1.517
      7      H     0.12875778    -2.09854344    -1.98674043       adf.R=1.350
      8      O    -0.40753362    -1.65015311     1.09012007       adf.R=1.517
      9      H    -0.85444976    -2.16470515     1.77111801       adf.R=1.350
     10      I     2.83543698     0.01542662     1.77113209       adf.R=1.967
 
Total System Charge             0.00000
Bonding info available!
 
 *** GO1_GOStep6 ***

 SOLVATION
-------------------------------------------

  The Delley construction of COSMO surface surface is calculated

       Division Level for Surface Triangles (NDIV)                  3
       Final Division Level for Triangles (NFDIV)                   1
       Radius of the Solvent (RSOL)                           1.93000 angstr
  Dielectric Constant (EPSL)                                 78.39000

       COSMO equation is solved iteratively-               conjugate-gradient

       Maximun of Iterations for Charges (NCIX)                  1000
       Criterion for Charge convergence (CCNV)                1.0E-08

  COSMO charges included variationally in SCF

       COSMO included at every SCF cycle

  Geometry-dependent empirical factor                         0.00000

  C-Matrix calculated in cspmtx

  In cspmtx, C-Matrix calculated using fitted potential

-------------------------------------------



 -------------------------------------------
  COSMO surface
  Area             =          557.851
  Volume           =          889.453
  Number of Points =         1324
 -------------------------------------------



 ======================
 RI Hartree-Fock Scheme
 ======================
  
 Fit Set Quality     : GOOD
 Threshold Quality   : GOOD
 Integration Quality : GOOD
 Response Quality    : DEFAULT
 Is Range Separated  :  F
 
 RIHartreeFock Dependency: number of modified vectors:           4
 cosmo_calcen: 0.5 (esolb+esolc) (Hartrees) =   -0.035010

 Solvation energy (screening term,uncorrected) =    -21.968831 kcal/mol

 Solvation energy (dispersion and cavitation terms) =      1.043139 kcal/mol
 Solvation Energy Contributions (Hartrees)
          esola   esolb+esolc
     0.03500956   -0.07001911
 esol last cycle   -0.03500956
  
 Hartree-Fock exchange energy:   -680.601260335743     
 cosmo_calcen: 0.5 (esolb+esolc) (Hartrees) =   -0.035010

 Solvation energy (screening term,uncorrected) =    -21.968825 kcal/mol

 Solvation energy (dispersion and cavitation terms) =      1.043139 kcal/mol
 Solvation Energy Contributions (Hartrees)
          esola   esolb+esolc
     0.03500955   -0.07001910
 esol last cycle   -0.03500955

 Energy gradients wrt nuclear displacements
 ==========================================

     Atom      Cartesian (a.u./angstrom)
                 X         Y         Z
 ----------------------------------------
     1 Pa   -0.005168  0.000325 -0.004216
     2 O     0.001353 -0.000690 -0.002288
     3 H    -0.000429  0.000357  0.001999
     4 O     0.000519  0.001209 -0.000421
     5 H     0.000040 -0.001114  0.000718
     6 O    -0.000716 -0.001274  0.000933
     7 H     0.000700  0.001239 -0.000303
     8 O    -0.001822 -0.000227  0.001788
     9 H     0.001721  0.000124 -0.000934
    10 I     0.003803  0.000053  0.002724
 ----------------------------------------
 Mulliken charges used for AMS results%charges...

 dE(predicted):    -0.87922E-04, dE(actual):    -0.56397E-04, Trust radius:    0.400000, all in a.u.
 
----------------------------------------------------------------------
Geometry Convergence after Step   6       (Hartree/Angstrom,Angstrom)
----------------------------------------------------------------------
current energy                               -2.62480295 Hartree
energy change                      -0.00005640     0.00001000    F
constrained gradient max            0.00516966     0.00010000    F
constrained gradient rms            0.00180285     0.00006667    F
gradient max                        0.00516966
gradient rms                        0.00180285
cart. step max                      0.03891198     0.00100000    F
cart. step rms                      0.01557943     0.00066667    F
 
 
--------
Geometry
--------
Formula: H4IO4Pa
Atoms
  Index Symbol   x (angstrom)   y (angstrom)   z (angstrom)
      1     Pa     0.27770962    -0.02516163     0.01132457       adf.R=2.200
      2      O     0.99560067     1.60144270    -1.04965079       adf.R=1.517
      3      H     1.45271003     2.02128013    -1.78742041       adf.R=1.350
      4      O    -1.41923985     1.07973069     0.59053329       adf.R=1.517
      5      H    -1.73150181     1.96073646     0.35282788       adf.R=1.350
      6      O     0.38342892    -1.18911618    -1.73602339       adf.R=1.517
      7      H     0.13197857    -2.09174613    -1.96298653       adf.R=1.350
      8      O    -0.41516354    -1.65479685     1.07610055       adf.R=1.517
      9      H    -0.88596996    -2.16311958     1.74578472       adf.R=1.350
     10      I     2.85832804     0.01183801     1.78086683       adf.R=1.967
 
Total System Charge             0.00000
Bonding info available!
 
 *** GO1_GOStep7 ***

 SOLVATION
-------------------------------------------

  The Delley construction of COSMO surface surface is calculated

       Division Level for Surface Triangles (NDIV)                  3
       Final Division Level for Triangles (NFDIV)                   1
       Radius of the Solvent (RSOL)                           1.93000 angstr
  Dielectric Constant (EPSL)                                 78.39000

       COSMO equation is solved iteratively-               conjugate-gradient

       Maximun of Iterations for Charges (NCIX)                  1000
       Criterion for Charge convergence (CCNV)                1.0E-08

  COSMO charges included variationally in SCF

       COSMO included at every SCF cycle

  Geometry-dependent empirical factor                         0.00000

  C-Matrix calculated in cspmtx

  In cspmtx, C-Matrix calculated using fitted potential

-------------------------------------------



 -------------------------------------------
  COSMO surface
  Area             =          556.904
  Volume           =          887.796
  Number of Points =         1323
 -------------------------------------------



 ======================
 RI Hartree-Fock Scheme
 ======================
  
 Fit Set Quality     : GOOD
 Threshold Quality   : GOOD
 Integration Quality : GOOD
 Response Quality    : DEFAULT
 Is Range Separated  :  F
 
 RIHartreeFock Dependency: number of modified vectors:           4
 cosmo_calcen: 0.5 (esolb+esolc) (Hartrees) =   -0.035040

 Solvation energy (screening term,uncorrected) =    -21.987946 kcal/mol

 Solvation energy (dispersion and cavitation terms) =      1.041367 kcal/mol
 Solvation Energy Contributions (Hartrees)
          esola   esolb+esolc
     0.03504002   -0.07008004
 esol last cycle   -0.03504002
  
 Hartree-Fock exchange energy:   -680.603432262145     
 cosmo_calcen: 0.5 (esolb+esolc) (Hartrees) =   -0.035040

 Solvation energy (screening term,uncorrected) =    -21.987945 kcal/mol

 Solvation energy (dispersion and cavitation terms) =      1.041367 kcal/mol
 Solvation Energy Contributions (Hartrees)
          esola   esolb+esolc
     0.03504002   -0.07008003
 esol last cycle   -0.03504002

 Energy gradients wrt nuclear displacements
 ==========================================

     Atom      Cartesian (a.u./angstrom)
                 X         Y         Z
 ----------------------------------------
     1 Pa   -0.004666  0.000169 -0.003884
     2 O    -0.000417 -0.001823 -0.001602
     3 H    -0.000302  0.000386  0.001939
     4 O     0.001204  0.001095 -0.000851
     5 H     0.000212 -0.001282  0.000611
     6 O    -0.000885 -0.001095  0.001552
     7 H     0.000642  0.001434 -0.000080
     8 O    -0.001904  0.000942  0.000103
     9 H     0.001809  0.000106 -0.000810
    10 I     0.004308  0.000068  0.003021
 ----------------------------------------
 Mulliken charges used for AMS results%charges...

 dE(predicted):    -0.70538E-04, dE(actual):    -0.12600E-04, Trust radius:    0.400000, all in a.u.
 
----------------------------------------------------------------------
Geometry Convergence after Step   7       (Hartree/Angstrom,Angstrom)
----------------------------------------------------------------------
current energy                               -2.62481555 Hartree
energy change                      -0.00001260     0.00001000    F
constrained gradient max            0.00466783     0.00010000    F
constrained gradient rms            0.00178293     0.00006667    F
gradient max                        0.00466783
gradient rms                        0.00178293
cart. step max                      0.02754540     0.00100000    F
cart. step rms                      0.01119700     0.00066667    F
 
 
--------
Geometry
--------
Formula: H4IO4Pa
Atoms
  Index Symbol   x (angstrom)   y (angstrom)   z (angstrom)
      1     Pa     0.29221747    -0.02422443     0.02371170       adf.R=2.200
      2      O     0.98526304     1.60586294    -1.04789412       adf.R=1.517
      3      H     1.42516463     2.01283778    -1.80384242       adf.R=1.350
      4      O    -1.41070678     1.07575664     0.59692853       adf.R=1.517
      5      H    -1.71802280     1.95575798     0.34776807       adf.R=1.350
      6      O     0.39739406    -1.18239688    -1.72846771       adf.R=1.517
      7      H     0.13475542    -2.08406841    -1.94832746       adf.R=1.350
      8      O    -0.41909148    -1.65813889     1.06789918       adf.R=1.517
      9      H    -0.91081905    -2.15954029     1.72850270       adf.R=1.350
     10      I     2.87172618     0.00924117     1.78507823       adf.R=1.967
 
Total System Charge             0.00000
Bonding info available!
 
 *** GO1_GOStep8 ***

 SOLVATION
-------------------------------------------

  The Delley construction of COSMO surface surface is calculated

       Division Level for Surface Triangles (NDIV)                  3
       Final Division Level for Triangles (NFDIV)                   1
       Radius of the Solvent (RSOL)                           1.93000 angstr
  Dielectric Constant (EPSL)                                 78.39000

       COSMO equation is solved iteratively-               conjugate-gradient

       Maximun of Iterations for Charges (NCIX)                  1000
       Criterion for Charge convergence (CCNV)                1.0E-08

  COSMO charges included variationally in SCF

       COSMO included at every SCF cycle

  Geometry-dependent empirical factor                         0.00000

  C-Matrix calculated in cspmtx

  In cspmtx, C-Matrix calculated using fitted potential

-------------------------------------------



 -------------------------------------------
  COSMO surface
  Area             =          554.710
  Volume           =          884.522
  Number of Points =         1324
 -------------------------------------------



 ======================
 RI Hartree-Fock Scheme
 ======================
  
 Fit Set Quality     : GOOD
 Threshold Quality   : GOOD
 Integration Quality : GOOD
 Response Quality    : DEFAULT
 Is Range Separated  :  F
 
 RIHartreeFock Dependency: number of modified vectors:           4
 cosmo_calcen: 0.5 (esolb+esolc) (Hartrees) =   -0.034877

 Solvation energy (screening term,uncorrected) =    -21.885604 kcal/mol

 Solvation energy (dispersion and cavitation terms) =      1.037265 kcal/mol
 Solvation Energy Contributions (Hartrees)
          esola   esolb+esolc
     0.03487693   -0.06975385
 esol last cycle   -0.03487693
  
 Hartree-Fock exchange energy:   -680.603709107127     
 cosmo_calcen: 0.5 (esolb+esolc) (Hartrees) =   -0.034877

 Solvation energy (screening term,uncorrected) =    -21.885607 kcal/mol

 Solvation energy (dispersion and cavitation terms) =      1.037265 kcal/mol
 Solvation Energy Contributions (Hartrees)
          esola   esolb+esolc
     0.03487693   -0.06975386
 esol last cycle   -0.03487693

 Energy gradients wrt nuclear displacements
 ==========================================

     Atom      Cartesian (a.u./angstrom)
                 X         Y         Z
 ----------------------------------------
     1 Pa   -0.003248 -0.000026 -0.002709
     2 O    -0.001703 -0.002672 -0.000749
     3 H     0.000164  0.000775  0.001234
     4 O     0.001614  0.000387 -0.000884
     5 H     0.000025 -0.000658  0.000362
     6 O    -0.000751 -0.000250  0.001805
     7 H     0.000352  0.000707 -0.000173
     8 O    -0.001665  0.002062 -0.001400
     9 H     0.001399 -0.000392 -0.000126
    10 I     0.003813  0.000067  0.002641
 ----------------------------------------
 Mulliken charges used for AMS results%charges...

 dE(predicted):    -0.48460E-04, dE(actual):     0.18363E-04, Trust radius:    0.021772, all in a.u.
 
----------------------------------------------------------------------
Geometry Convergence after Step   8       (Hartree/Angstrom,Angstrom)
----------------------------------------------------------------------
current energy                               -2.62479719 Hartree
energy change                       0.00001836     0.00001000    F
constrained gradient max            0.00377688     0.00010000    F
constrained gradient rms            0.00154793     0.00006667    F
gradient max                        0.00377688
gradient rms                        0.00154793
cart. step max                      0.00482524     0.00100000    F
cart. step rms                      0.00218561     0.00066667    F
 
 
--------
Geometry
--------
Formula: H4IO4Pa
Atoms
  Index Symbol   x (angstrom)   y (angstrom)   z (angstrom)
      1     Pa     0.29477148    -0.02372302     0.02633655       adf.R=2.200
      2      O     0.98680356     1.60734861    -1.04665192       adf.R=1.517
      3      H     1.42624020     2.00801255    -1.80677810       adf.R=1.350
      4      O    -1.41161902     1.07340303     0.59773666       adf.R=1.517
      5      H    -1.72005082     1.95340903     0.34840465       adf.R=1.350
      6      O     0.39897774    -1.17910178    -1.72890755       adf.R=1.517
      7      H     0.13541438    -2.08080275    -1.94946876       adf.R=1.350
      8      O    -0.41776029    -1.65919176     1.06895462       adf.R=1.517
      9      H    -0.91321849    -2.15668734     1.73036821       adf.R=1.350
     10      I     2.86832193     0.00842102     1.78136234       adf.R=1.967
 
Total System Charge             0.00000
Bonding info available!
 
 *** GO1_GOStep9 ***

 SOLVATION
-------------------------------------------

  The Delley construction of COSMO surface surface is calculated

       Division Level for Surface Triangles (NDIV)                  3
       Final Division Level for Triangles (NFDIV)                   1
       Radius of the Solvent (RSOL)                           1.93000 angstr
  Dielectric Constant (EPSL)                                 78.39000

       COSMO equation is solved iteratively-               conjugate-gradient

       Maximun of Iterations for Charges (NCIX)                  1000
       Criterion for Charge convergence (CCNV)                1.0E-08

  COSMO charges included variationally in SCF

       COSMO included at every SCF cycle

  Geometry-dependent empirical factor                         0.00000

  C-Matrix calculated in cspmtx

  In cspmtx, C-Matrix calculated using fitted potential

-------------------------------------------



 -------------------------------------------
  COSMO surface
  Area             =          554.648
  Volume           =          884.716
  Number of Points =         1322
 -------------------------------------------



 ======================
 RI Hartree-Fock Scheme
 ======================
  
 Fit Set Quality     : GOOD
 Threshold Quality   : GOOD
 Integration Quality : GOOD
 Response Quality    : DEFAULT
 Is Range Separated  :  F
 
 RIHartreeFock Dependency: number of modified vectors:           4
 cosmo_calcen: 0.5 (esolb+esolc) (Hartrees) =   -0.034667

 Solvation energy (screening term,uncorrected) =    -21.753618 kcal/mol

 Solvation energy (dispersion and cavitation terms) =      1.037148 kcal/mol
 Solvation Energy Contributions (Hartrees)
          esola   esolb+esolc
     0.03466659   -0.06933319
 esol last cycle   -0.03466659
  
 Hartree-Fock exchange energy:   -680.602598490728     
 cosmo_calcen: 0.5 (esolb+esolc) (Hartrees) =   -0.034667

 Solvation energy (screening term,uncorrected) =    -21.753617 kcal/mol

 Solvation energy (dispersion and cavitation terms) =      1.037148 kcal/mol
 Solvation Energy Contributions (Hartrees)
          esola   esolb+esolc
     0.03466659   -0.06933318
 esol last cycle   -0.03466659

 Energy gradients wrt nuclear displacements
 ==========================================

     Atom      Cartesian (a.u./angstrom)
                 X         Y         Z
 ----------------------------------------
     1 Pa   -0.001862 -0.000028 -0.001546
     2 O    -0.001815 -0.002650 -0.000465
     3 H     0.000516  0.001112  0.000595
     4 O     0.001474 -0.000191 -0.000607
     5 H    -0.000240  0.000052  0.000178
     6 O    -0.000531  0.000367  0.001542
     7 H     0.000122 -0.000071 -0.000390
     8 O    -0.001428  0.002186 -0.001671
     9 H     0.000965 -0.000834  0.000431
    10 I     0.002799  0.000057  0.001933
 ----------------------------------------
 Mulliken charges used for AMS results%charges...

 dE(predicted):    -0.42353E-04, dE(actual):    -0.35763E-04, Trust radius:    0.043544, all in a.u.
 
----------------------------------------------------------------------
Geometry Convergence after Step   9       (Hartree/Angstrom,Angstrom)
----------------------------------------------------------------------
current energy                               -2.62483295 Hartree
energy change                      -0.00003576     0.00001000    F
constrained gradient max            0.00276252     0.00010000    F
constrained gradient rms            0.00124978     0.00006667    F
gradient max                        0.00276252
gradient rms                        0.00124978
cart. step max                      0.01176831     0.00100000    F
cart. step rms                      0.00593856     0.00066667    F
 
 
--------
Geometry
--------
Formula: H4IO4Pa
Atoms
  Index Symbol   x (angstrom)   y (angstrom)   z (angstrom)
      1     Pa     0.29485884    -0.02240639     0.02794571       adf.R=2.200
      2      O     0.99309446     1.61194631    -1.04140105       adf.R=1.517
      3      H     1.43599213     1.99624424    -1.80848430       adf.R=1.350
      4      O    -1.41881195     1.06771621     0.59881274       adf.R=1.517
      5      H    -1.72700467     1.94782113     0.34770547       adf.R=1.350
      6      O     0.40004493    -1.17163804    -1.73402634       adf.R=1.517
      7      H     0.13449856    -2.07383072    -1.95237106       adf.R=1.350
      8      O    -0.41172736    -1.66179228     1.07271942       adf.R=1.517
      9      H    -0.91149834    -2.14855834     1.73946889       adf.R=1.350
     10      I     2.85843406     0.00558548     1.77098724       adf.R=1.967
 
Total System Charge             0.00000
Bonding info available!
 
 *** GO1_GOStep10 ***

 SOLVATION
-------------------------------------------

  The Delley construction of COSMO surface surface is calculated

       Division Level for Surface Triangles (NDIV)                  3
       Final Division Level for Triangles (NFDIV)                   1
       Radius of the Solvent (RSOL)                           1.93000 angstr
  Dielectric Constant (EPSL)                                 78.39000

       COSMO equation is solved iteratively-               conjugate-gradient

       Maximun of Iterations for Charges (NCIX)                  1000
       Criterion for Charge convergence (CCNV)                1.0E-08

  COSMO charges included variationally in SCF

       COSMO included at every SCF cycle

  Geometry-dependent empirical factor                         0.00000

  C-Matrix calculated in cspmtx

  In cspmtx, C-Matrix calculated using fitted potential

-------------------------------------------



 -------------------------------------------
  COSMO surface
  Area             =          555.311
  Volume           =          886.767
  Number of Points =         1319
 -------------------------------------------



 ======================
 RI Hartree-Fock Scheme
 ======================
  
 Fit Set Quality     : GOOD
 Threshold Quality   : GOOD
 Integration Quality : GOOD
 Response Quality    : DEFAULT
 Is Range Separated  :  F
 
 RIHartreeFock Dependency: number of modified vectors:           4
 cosmo_calcen: 0.5 (esolb+esolc) (Hartrees) =   -0.034465

 Solvation energy (screening term,uncorrected) =    -21.627306 kcal/mol

 Solvation energy (dispersion and cavitation terms) =      1.038388 kcal/mol
 Solvation Energy Contributions (Hartrees)
          esola   esolb+esolc
     0.03446530   -0.06893060
 esol last cycle   -0.03446530
  
 Hartree-Fock exchange energy:   -680.600721026812     
 cosmo_calcen: 0.5 (esolb+esolc) (Hartrees) =   -0.034465

 Solvation energy (screening term,uncorrected) =    -21.627303 kcal/mol

 Solvation energy (dispersion and cavitation terms) =      1.038388 kcal/mol
 Solvation Energy Contributions (Hartrees)
          esola   esolb+esolc
     0.03446530   -0.06893060
 esol last cycle   -0.03446530

 Energy gradients wrt nuclear displacements
 ==========================================

     Atom      Cartesian (a.u./angstrom)
                 X         Y         Z
 ----------------------------------------
     1 Pa    0.000420  0.000043  0.000246
     2 O    -0.001249 -0.001990 -0.000514
     3 H     0.000820  0.001382 -0.000059
     4 O     0.000598 -0.000463 -0.000133
     5 H    -0.000372  0.000575 -0.000002
     6 O    -0.000326  0.000625  0.000579
     7 H    -0.000068 -0.000630 -0.000490
     8 O    -0.001247  0.001647 -0.001211
     9 H     0.000511 -0.001229  0.000934
    10 I     0.000912  0.000040  0.000650
 ----------------------------------------
 Mulliken charges used for AMS results%charges...

 dE(predicted):    -0.86871E-04, dE(actual):    -0.84705E-04, Trust radius:    0.087088, all in a.u.
 
----------------------------------------------------------------------
Geometry Convergence after Step  10       (Hartree/Angstrom,Angstrom)
----------------------------------------------------------------------
current energy                               -2.62491766 Hartree
energy change                      -0.00008470     0.00001000    F
constrained gradient max            0.00197580     0.00010000    F
constrained gradient rms            0.00083174     0.00006667    F
gradient max                        0.00197580
gradient rms                        0.00083174
cart. step max                      0.02005675     0.00100000    F
cart. step rms                      0.00798949     0.00066667    F
 
 
--------
Geometry
--------
Formula: H4IO4Pa
Atoms
  Index Symbol   x (angstrom)   y (angstrom)   z (angstrom)
      1     Pa     0.29836913    -0.02008359     0.03320441       adf.R=2.200
      2      O     0.99442757     1.62129661    -1.03155271       adf.R=1.517
      3      H     1.43157303     1.97618749    -1.81608893       adf.R=1.350
      4      O    -1.42563630     1.05893898     0.60378661       adf.R=1.517
      5      H    -1.72577839     1.93900780     0.34144861       adf.R=1.350
      6      O     0.40915453    -1.15952360    -1.73806844       adf.R=1.517
      7      H     0.13432368    -2.06238103    -1.94369353       adf.R=1.350
      8      O    -0.40496390    -1.66684622     1.07134212       adf.R=1.517
      9      H    -0.92064653    -2.13471268     1.73965292       adf.R=1.350
     10      I     2.85705786    -0.00079615     1.76132566       adf.R=1.967
 
Total System Charge             0.00000
Bonding info available!
 
 *** GO1_GOStep11 ***

 SOLVATION
-------------------------------------------

  The Delley construction of COSMO surface surface is calculated

       Division Level for Surface Triangles (NDIV)                  3
       Final Division Level for Triangles (NFDIV)                   1
       Radius of the Solvent (RSOL)                           1.93000 angstr
  Dielectric Constant (EPSL)                                 78.39000

       COSMO equation is solved iteratively-               conjugate-gradient

       Maximun of Iterations for Charges (NCIX)                  1000
       Criterion for Charge convergence (CCNV)                1.0E-08

  COSMO charges included variationally in SCF

       COSMO included at every SCF cycle

  Geometry-dependent empirical factor                         0.00000

  C-Matrix calculated in cspmtx

  In cspmtx, C-Matrix calculated using fitted potential

-------------------------------------------



 -------------------------------------------
  COSMO surface
  Area             =          554.259
  Volume           =          886.371
  Number of Points =         1316
 -------------------------------------------



 ======================
 RI Hartree-Fock Scheme
 ======================
  
 Fit Set Quality     : GOOD
 Threshold Quality   : GOOD
 Integration Quality : GOOD
 Response Quality    : DEFAULT
 Is Range Separated  :  F
 
 RIHartreeFock Dependency: number of modified vectors:           4
 cosmo_calcen: 0.5 (esolb+esolc) (Hartrees) =   -0.034523

 Solvation energy (screening term,uncorrected) =    -21.663302 kcal/mol

 Solvation energy (dispersion and cavitation terms) =      1.036422 kcal/mol
 Solvation Energy Contributions (Hartrees)
          esola   esolb+esolc
     0.03452267   -0.06904533
 esol last cycle   -0.03452267
  
 Hartree-Fock exchange energy:   -680.601051497941     
 cosmo_calcen: 0.5 (esolb+esolc) (Hartrees) =   -0.034523

 Solvation energy (screening term,uncorrected) =    -21.663302 kcal/mol

 Solvation energy (dispersion and cavitation terms) =      1.036422 kcal/mol
 Solvation Energy Contributions (Hartrees)
          esola   esolb+esolc
     0.03452266   -0.06904533
 esol last cycle   -0.03452266

 Energy gradients wrt nuclear displacements
 ==========================================

     Atom      Cartesian (a.u./angstrom)
                 X         Y         Z
 ----------------------------------------
     1 Pa    0.002315 -0.000018  0.001571
     2 O    -0.000664 -0.001340 -0.000622
     3 H     0.000746  0.001207 -0.000189
     4 O    -0.000280 -0.000815  0.000530
     5 H    -0.000233  0.001011 -0.000347
     6 O     0.000013  0.000989 -0.000504
     7 H    -0.000352 -0.001057 -0.000238
     8 O    -0.001223  0.001213 -0.000642
     9 H     0.000429 -0.001195  0.000929
    10 I    -0.000751  0.000006 -0.000489
 ----------------------------------------
 Mulliken charges used for AMS results%charges...

 dE(predicted):    -0.76302E-04, dE(actual):    -0.87133E-04, Trust radius:    0.174177, all in a.u.
 
----------------------------------------------------------------------
Geometry Convergence after Step  11       (Hartree/Angstrom,Angstrom)
----------------------------------------------------------------------
current energy                               -2.62500479 Hartree
energy change                      -0.00008713     0.00001000    F
constrained gradient max            0.00231154     0.00010000    F
constrained gradient rms            0.00089207     0.00006667    F
gradient max                        0.00231154
gradient rms                        0.00089207
cart. step max                      0.03300886     0.00100000    F
cart. step rms                      0.01583396     0.00066667    F
 
 
--------
Geometry
--------
Formula: H4IO4Pa
Atoms
  Index Symbol   x (angstrom)   y (angstrom)   z (angstrom)
      1     Pa     0.30935837    -0.01653490     0.04549936       adf.R=2.200
      2      O     0.98868224     1.63474330    -1.01777966       adf.R=1.517
      3      H     1.39856417     1.94748299    -1.83459721       adf.R=1.350
      4      O    -1.42746147     1.04814141     0.61438402       adf.R=1.517
      5      H    -1.71088174     1.92648877     0.32819392       adf.R=1.350
      6      O     0.43093642    -1.14340528    -1.73644220       adf.R=1.517
      7      H     0.13509083    -2.04489023    -1.91846636       adf.R=1.350
      8      O    -0.39868795    -1.67441824     1.06272594       adf.R=1.517
      9      H    -0.95025205    -2.11619447     1.72025455       adf.R=1.350
     10      I     2.87253186    -0.01032575     1.75758436       adf.R=1.967
 
Total System Charge             0.00000
Bonding info available!
 
 *** GO1_GOStep12 ***

 SOLVATION
-------------------------------------------

  The Delley construction of COSMO surface surface is calculated

       Division Level for Surface Triangles (NDIV)                  3
       Final Division Level for Triangles (NFDIV)                   1
       Radius of the Solvent (RSOL)                           1.93000 angstr
  Dielectric Constant (EPSL)                                 78.39000

       COSMO equation is solved iteratively-               conjugate-gradient

       Maximun of Iterations for Charges (NCIX)                  1000
       Criterion for Charge convergence (CCNV)                1.0E-08

  COSMO charges included variationally in SCF

       COSMO included at every SCF cycle

  Geometry-dependent empirical factor                         0.00000

  C-Matrix calculated in cspmtx

  In cspmtx, C-Matrix calculated using fitted potential

-------------------------------------------



 -------------------------------------------
  COSMO surface
  Area             =          552.117
  Volume           =          884.714
  Number of Points =         1303
 -------------------------------------------



 ======================
 RI Hartree-Fock Scheme
 ======================
  
 Fit Set Quality     : GOOD
 Threshold Quality   : GOOD
 Integration Quality : GOOD
 Response Quality    : DEFAULT
 Is Range Separated  :  F
 
 RIHartreeFock Dependency: number of modified vectors:           4
 cosmo_calcen: 0.5 (esolb+esolc) (Hartrees) =   -0.035017

 Solvation energy (screening term,uncorrected) =    -21.973270 kcal/mol

 Solvation energy (dispersion and cavitation terms) =      1.032415 kcal/mol
 Solvation Energy Contributions (Hartrees)
          esola   esolb+esolc
     0.03501663   -0.07003326
 esol last cycle   -0.03501663
  
 Hartree-Fock exchange energy:   -680.602560202796     
 cosmo_calcen: 0.5 (esolb+esolc) (Hartrees) =   -0.035017

 Solvation energy (screening term,uncorrected) =    -21.973266 kcal/mol

 Solvation energy (dispersion and cavitation terms) =      1.032415 kcal/mol
 Solvation Energy Contributions (Hartrees)
          esola   esolb+esolc
     0.03501662   -0.07003325
 esol last cycle   -0.03501662

 Energy gradients wrt nuclear displacements
 ==========================================

     Atom      Cartesian (a.u./angstrom)
                 X         Y         Z
 ----------------------------------------
     1 Pa    0.003078 -0.000016  0.002184
     2 O    -0.000576 -0.001125 -0.000259
     3 H     0.000522  0.000812 -0.000261
     4 O    -0.001171 -0.000776  0.001003
     5 H     0.000422  0.000710 -0.000699
     6 O     0.000391  0.000882 -0.001571
     7 H    -0.000609 -0.000784  0.000519
     8 O    -0.001034  0.001324 -0.000778
     9 H     0.000416 -0.001040  0.000850
    10 I    -0.001439  0.000013 -0.000989
 ----------------------------------------
 Mulliken charges used for AMS results%charges...

 dE(predicted):    -0.59823E-04, dE(actual):    -0.57153E-04, Trust radius:    0.348354, all in a.u.
 
----------------------------------------------------------------------
Geometry Convergence after Step  12       (Hartree/Angstrom,Angstrom)
----------------------------------------------------------------------
current energy                               -2.62506194 Hartree
energy change                      -0.00005715     0.00001000    F
constrained gradient max            0.00307403     0.00010000    F
constrained gradient rms            0.00106673     0.00006667    F
gradient max                        0.00307403
gradient rms                        0.00106673
cart. step max                      0.01506819     0.00100000    F
cart. step rms                      0.00631201     0.00066667    F
 
 
--------
Geometry
--------
Formula: H4IO4Pa
Atoms
  Index Symbol   x (angstrom)   y (angstrom)   z (angstrom)
      1     Pa     0.31197422    -0.01524771     0.04866944       adf.R=2.200
      2      O     0.98688284     1.63992220    -1.01228206       adf.R=1.517
      3      H     1.38349597     1.93640957    -1.84152171       adf.R=1.350
      4      O    -1.42773832     1.04541909     0.61858624       adf.R=1.517
      5      H    -1.70613153     1.92319105     0.32611298       adf.R=1.350
      6      O     0.44012569    -1.13951119    -1.73510228       adf.R=1.517
      7      H     0.13829361    -2.04030428    -1.90994612       adf.R=1.350
      8      O    -0.39561409    -1.67697132     1.05985562       adf.R=1.517
      9      H    -0.96360267    -2.10733289     1.71066359       adf.R=1.350
     10      I     2.88019496    -0.01448694     1.75632100       adf.R=1.967
 
Total System Charge             0.00000
Bonding info available!
 
 *** GO1_GOStep13 ***

 SOLVATION
-------------------------------------------

  The Delley construction of COSMO surface surface is calculated

       Division Level for Surface Triangles (NDIV)                  3
       Final Division Level for Triangles (NFDIV)                   1
       Radius of the Solvent (RSOL)                           1.93000 angstr
  Dielectric Constant (EPSL)                                 78.39000

       COSMO equation is solved iteratively-               conjugate-gradient

       Maximun of Iterations for Charges (NCIX)                  1000
       Criterion for Charge convergence (CCNV)                1.0E-08

  COSMO charges included variationally in SCF

       COSMO included at every SCF cycle

  Geometry-dependent empirical factor                         0.00000

  C-Matrix calculated in cspmtx

  In cspmtx, C-Matrix calculated using fitted potential

-------------------------------------------



 -------------------------------------------
  COSMO surface
  Area             =          551.347
  Volume           =          884.037
  Number of Points =         1297
 -------------------------------------------



 ======================
 RI Hartree-Fock Scheme
 ======================
  
 Fit Set Quality     : GOOD
 Threshold Quality   : GOOD
 Integration Quality : GOOD
 Response Quality    : DEFAULT
 Is Range Separated  :  F
 
 RIHartreeFock Dependency: number of modified vectors:           4
 cosmo_calcen: 0.5 (esolb+esolc) (Hartrees) =   -0.035338

 Solvation energy (screening term,uncorrected) =    -22.174864 kcal/mol

 Solvation energy (dispersion and cavitation terms) =      1.030977 kcal/mol
 Solvation Energy Contributions (Hartrees)
          esola   esolb+esolc
     0.03533789   -0.07067578
 esol last cycle   -0.03533789
  
 Hartree-Fock exchange energy:   -680.603243007537     
 cosmo_calcen: 0.5 (esolb+esolc) (Hartrees) =   -0.035338

 Solvation energy (screening term,uncorrected) =    -22.174867 kcal/mol

 Solvation energy (dispersion and cavitation terms) =      1.030977 kcal/mol
 Solvation Energy Contributions (Hartrees)
          esola   esolb+esolc
     0.03533790   -0.07067579
 esol last cycle   -0.03533790

 Energy gradients wrt nuclear displacements
 ==========================================

     Atom      Cartesian (a.u./angstrom)
                 X         Y         Z
 ----------------------------------------
     1 Pa    0.002672 -0.000069  0.001724
     2 O    -0.000391 -0.000954 -0.000238
     3 H     0.000273  0.000519  0.000009
     4 O    -0.001532 -0.000436  0.001129
     5 H     0.000735  0.000364 -0.000727
     6 O     0.000431  0.000483 -0.001897
     7 H    -0.000597 -0.000375  0.000876
     8 O    -0.001087  0.001227 -0.000548
     9 H     0.000670 -0.000764  0.000479
    10 I    -0.001175  0.000005 -0.000807
 ----------------------------------------
 Mulliken charges used for AMS results%charges...

 dE(predicted):    -0.15573E-04, dE(actual):    -0.30669E-05, Trust radius:    0.348354, all in a.u.
 
----------------------------------------------------------------------
Geometry Convergence after Step  13       (Hartree/Angstrom,Angstrom)
----------------------------------------------------------------------
current energy                               -2.62506501 Hartree
energy change                      -0.00000307     0.00001000    T
constrained gradient max            0.00266723     0.00010000    F
constrained gradient rms            0.00096811     0.00006667    F
gradient max                        0.00266723
gradient rms                        0.00096811
cart. step max                      0.03222416     0.00100000    F
cart. step rms                      0.01332798     0.00066667    F
 
 
--------
Geometry
--------
Formula: H4IO4Pa
Atoms
  Index Symbol   x (angstrom)   y (angstrom)   z (angstrom)
      1     Pa     0.31524923    -0.01295635     0.05316871       adf.R=2.200
      2      O     0.98435528     1.64947991    -1.00245821       adf.R=1.517
      3      H     1.35127181     1.91310172    -1.85574475       adf.R=1.350
      4      O    -1.42662974     1.04248267     0.62711884       adf.R=1.517
      5      H    -1.70126066     1.92003656     0.33203318       adf.R=1.350
      6      O     0.45982223    -1.13579827    -1.73028621       adf.R=1.517
      7      H     0.15355949    -2.03568074    -1.89921695       adf.R=1.350
      8      O    -0.38910654    -1.68112753     1.05656327       adf.R=1.517
      9      H    -0.99517413    -2.08543627     1.68869360       adf.R=1.350
     10      I     2.89579370    -0.02301410     1.75148523       adf.R=1.967
 
Total System Charge             0.00000
Bonding info available!
 
 *** GO1_GOStep14 ***

 SOLVATION
-------------------------------------------

  The Delley construction of COSMO surface surface is calculated

       Division Level for Surface Triangles (NDIV)                  3
       Final Division Level for Triangles (NFDIV)                   1
       Radius of the Solvent (RSOL)                           1.93000 angstr
  Dielectric Constant (EPSL)                                 78.39000

       COSMO equation is solved iteratively-               conjugate-gradient

       Maximun of Iterations for Charges (NCIX)                  1000
       Criterion for Charge convergence (CCNV)                1.0E-08

  COSMO charges included variationally in SCF

       COSMO included at every SCF cycle

  Geometry-dependent empirical factor                         0.00000

  C-Matrix calculated in cspmtx

  In cspmtx, C-Matrix calculated using fitted potential

-------------------------------------------



 -------------------------------------------
  COSMO surface
  Area             =          550.928
  Volume           =          884.471
  Number of Points =         1300
 -------------------------------------------



 ======================
 RI Hartree-Fock Scheme
 ======================
  
 Fit Set Quality     : GOOD
 Threshold Quality   : GOOD
 Integration Quality : GOOD
 Response Quality    : DEFAULT
 Is Range Separated  :  F
 
 RIHartreeFock Dependency: number of modified vectors:           4
 cosmo_calcen: 0.5 (esolb+esolc) (Hartrees) =   -0.036031

 Solvation energy (screening term,uncorrected) =    -22.610037 kcal/mol

 Solvation energy (dispersion and cavitation terms) =      1.030193 kcal/mol
 Solvation Energy Contributions (Hartrees)
          esola   esolb+esolc
     0.03603138   -0.07206277
 esol last cycle   -0.03603138
  
 Hartree-Fock exchange energy:   -680.604893245528     
 cosmo_calcen: 0.5 (esolb+esolc) (Hartrees) =   -0.036031

 Solvation energy (screening term,uncorrected) =    -22.610034 kcal/mol

 Solvation energy (dispersion and cavitation terms) =      1.030193 kcal/mol
 Solvation Energy Contributions (Hartrees)
          esola   esolb+esolc
     0.03603138   -0.07206276
 esol last cycle   -0.03603138

 Energy gradients wrt nuclear displacements
 ==========================================

     Atom      Cartesian (a.u./angstrom)
                 X         Y         Z
 ----------------------------------------
     1 Pa    0.001422 -0.000126  0.000518
     2 O     0.000071 -0.000550 -0.000270
     3 H    -0.000338 -0.000123  0.000830
     4 O    -0.002081  0.000644  0.001046
     5 H     0.001294 -0.000587 -0.000551
     6 O     0.000320 -0.000769 -0.002300
     7 H    -0.000370  0.000723  0.001437
     8 O    -0.001284  0.000879  0.000092
     9 H     0.001422 -0.000061 -0.000486
    10 I    -0.000455 -0.000029 -0.000316
 ----------------------------------------
 Mulliken charges used for AMS results%charges...

 dE(predicted):    -0.39945E-04, dE(actual):    -0.13684E-04, Trust radius:    0.348354, all in a.u.
 
----------------------------------------------------------------------
Geometry Convergence after Step  14       (Hartree/Angstrom,Angstrom)
----------------------------------------------------------------------
current energy                               -2.62507869 Hartree
energy change                      -0.00001368     0.00001000    F
constrained gradient max            0.00228885     0.00010000    F
constrained gradient rms            0.00091890     0.00006667    F
gradient max                        0.00228885
gradient rms                        0.00091890
cart. step max                      0.04023116     0.00100000    F
cart. step rms                      0.01610439     0.00066667    F
 
 
--------
Geometry
--------
Formula: H4IO4Pa
Atoms
  Index Symbol   x (angstrom)   y (angstrom)   z (angstrom)
      1     Pa     0.31770884    -0.01084303     0.05696072       adf.R=2.200
      2      O     0.98266020     1.65686197    -0.99646542       adf.R=1.517
      3      H     1.31588794     1.88725460    -1.87256474       adf.R=1.350
      4      O    -1.42192511     1.04239965     0.63718109       adf.R=1.517
      5      H    -1.70276995     1.92096246     0.35313604       adf.R=1.350
      6      O     0.48170056    -1.13637016    -1.72136214       adf.R=1.517
      7      H     0.18156697    -2.03638017    -1.89701803       adf.R=1.350
      8      O    -0.38369987    -1.68347161     1.05697044       adf.R=1.517
      9      H    -1.03540529    -2.05885795     1.66037158       adf.R=1.350
     10      I     2.91215639    -0.03046815     1.74414716       adf.R=1.967
 
Total System Charge             0.00000
Bonding info available!
 
 *** GO1_GOStep15 ***

 SOLVATION
-------------------------------------------

  The Delley construction of COSMO surface surface is calculated

       Division Level for Surface Triangles (NDIV)                  3
       Final Division Level for Triangles (NFDIV)                   1
       Radius of the Solvent (RSOL)                           1.93000 angstr
  Dielectric Constant (EPSL)                                 78.39000

       COSMO equation is solved iteratively-               conjugate-gradient

       Maximun of Iterations for Charges (NCIX)                  1000
       Criterion for Charge convergence (CCNV)                1.0E-08

  COSMO charges included variationally in SCF

       COSMO included at every SCF cycle

  Geometry-dependent empirical factor                         0.00000

  C-Matrix calculated in cspmtx

  In cspmtx, C-Matrix calculated using fitted potential

-------------------------------------------



 -------------------------------------------
  COSMO surface
  Area             =          550.136
  Volume           =          884.048
  Number of Points =         1306
 -------------------------------------------



 ======================
 RI Hartree-Fock Scheme
 ======================
  
 Fit Set Quality     : GOOD
 Threshold Quality   : GOOD
 Integration Quality : GOOD
 Response Quality    : DEFAULT
 Is Range Separated  :  F
 
 RIHartreeFock Dependency: number of modified vectors:           4
 cosmo_calcen: 0.5 (esolb+esolc) (Hartrees) =   -0.036682

 Solvation energy (screening term,uncorrected) =    -23.018197 kcal/mol

 Solvation energy (dispersion and cavitation terms) =      1.028713 kcal/mol
 Solvation Energy Contributions (Hartrees)
          esola   esolb+esolc
     0.03668183   -0.07336365
 esol last cycle   -0.03668183
  
 Hartree-Fock exchange energy:   -680.606527274148     
 cosmo_calcen: 0.5 (esolb+esolc) (Hartrees) =   -0.036682

 Solvation energy (screening term,uncorrected) =    -23.018186 kcal/mol

 Solvation energy (dispersion and cavitation terms) =      1.028713 kcal/mol
 Solvation Energy Contributions (Hartrees)
          esola   esolb+esolc
     0.03668181   -0.07336362
 esol last cycle   -0.03668181

 Energy gradients wrt nuclear displacements
 ==========================================

     Atom      Cartesian (a.u./angstrom)
                 X         Y         Z
 ----------------------------------------
     1 Pa   -0.000055 -0.000369 -0.000829
     2 O     0.000566 -0.000118 -0.000417
     3 H    -0.000897 -0.000717  0.001654
     4 O    -0.002198  0.001716  0.000671
     5 H     0.001573 -0.001481 -0.000169
     6 O     0.000009 -0.001888 -0.002104
     7 H    -0.000036  0.001677  0.001679
     8 O    -0.001333  0.000778  0.000479
     9 H     0.002011  0.000472 -0.001196
    10 I     0.000359 -0.000070  0.000231
 ----------------------------------------
 Mulliken charges used for AMS results%charges...
 
----------------------------------------------------------------------
Geometry Convergence after Step  15       (Hartree/Angstrom,Angstrom)
----------------------------------------------------------------------
current energy                               -2.62507868 Hartree
energy change                       0.00000002     0.00001000    T
constrained gradient max            0.00224514     0.00010000    F
constrained gradient rms            0.00116022     0.00006667    F
gradient max                        0.00224514
gradient rms                        0.00116022
cart. step max                      0.04463141     0.00100000    F
cart. step rms                      0.01840445     0.00066667    F
 
 
--------
Geometry
--------
Formula: H4IO4Pa
Atoms
  Index Symbol   x (angstrom)   y (angstrom)   z (angstrom)
      1     Pa     0.31888570    -0.00940529     0.06015435       adf.R=2.200
      2      O     0.98126569     1.65959149    -0.99768413       adf.R=1.517
      3      H     1.28600707     1.86177782    -1.89105711       adf.R=1.350
      4      O    -1.41323470     1.04581425     0.64792697       adf.R=1.517
      5      H    -1.71342088     1.92601372     0.39147510       adf.R=1.350
      6      O     0.50231973    -1.14142876    -1.70836683       adf.R=1.517
      7      H     0.22198804    -2.04238764    -1.90795421       adf.R=1.350
      8      O    -0.38184126    -1.68325895     1.06296577       adf.R=1.517
      9      H    -1.08003670    -2.03122602     1.62988914       adf.R=1.350
     10      I     2.92594797    -0.03440302     1.73400765       adf.R=1.967
 
Total System Charge             0.00000
Bonding info available!
 
 *** GO1_GOStep16 ***

 SOLVATION
-------------------------------------------

  The Delley construction of COSMO surface surface is calculated

       Division Level for Surface Triangles (NDIV)                  3
       Final Division Level for Triangles (NFDIV)                   1
       Radius of the Solvent (RSOL)                           1.93000 angstr
  Dielectric Constant (EPSL)                                 78.39000

       COSMO equation is solved iteratively-               conjugate-gradient

       Maximun of Iterations for Charges (NCIX)                  1000
       Criterion for Charge convergence (CCNV)                1.0E-08

  COSMO charges included variationally in SCF

       COSMO included at every SCF cycle

  Geometry-dependent empirical factor                         0.00000

  C-Matrix calculated in cspmtx

  In cspmtx, C-Matrix calculated using fitted potential

-------------------------------------------



 -------------------------------------------
  COSMO surface
  Area             =          550.487
  Volume           =          884.973
  Number of Points =         1312
 -------------------------------------------



 ======================
 RI Hartree-Fock Scheme
 ======================
  
 Fit Set Quality     : GOOD
 Threshold Quality   : GOOD
 Integration Quality : GOOD
 Response Quality    : DEFAULT
 Is Range Separated  :  F
 
 RIHartreeFock Dependency: number of modified vectors:           4
 cosmo_calcen: 0.5 (esolb+esolc) (Hartrees) =   -0.037078

 Solvation energy (screening term,uncorrected) =    -23.266957 kcal/mol

 Solvation energy (dispersion and cavitation terms) =      1.029368 kcal/mol
 Solvation Energy Contributions (Hartrees)
          esola   esolb+esolc
     0.03707825   -0.07415650
 esol last cycle   -0.03707825
  
 Hartree-Fock exchange energy:   -680.606863511198     
 cosmo_calcen: 0.5 (esolb+esolc) (Hartrees) =   -0.037078

 Solvation energy (screening term,uncorrected) =    -23.266950 kcal/mol

 Solvation energy (dispersion and cavitation terms) =      1.029368 kcal/mol
 Solvation Energy Contributions (Hartrees)
          esola   esolb+esolc
     0.03707824   -0.07415648
 esol last cycle   -0.03707824

 Energy gradients wrt nuclear displacements
 ==========================================

     Atom      Cartesian (a.u./angstrom)
                 X         Y         Z
 ----------------------------------------
     1 Pa   -0.001216 -0.000717 -0.001535
     2 O     0.000762  0.000179 -0.000125
     3 H    -0.001088 -0.000915  0.001609
     4 O    -0.001629  0.002174  0.000136
     5 H     0.001329 -0.001719  0.000222
     6 O    -0.000397 -0.002335 -0.001336
     7 H     0.000246  0.001945  0.001389
     8 O    -0.000993  0.000898  0.000380
     9 H     0.002046  0.000584 -0.001306
    10 I     0.000939 -0.000095  0.000565
 ----------------------------------------
[...]
 Index  Atom      ---- Displacements (x/y/z) ----
     1    Pa      -0.002802   0.003693  -0.001448
     2     O       0.251724   0.027846   0.150487
     3     H       0.361713   0.045298   0.216206
     4     O      -0.217439  -0.031644  -0.169279
     5     H      -0.310807  -0.045836  -0.242891
     6     O      -0.228764  -0.008583  -0.128729
     7     H      -0.335016  -0.007385  -0.160442
     8     O       0.245320  -0.019162   0.179620
     9     H       0.353003  -0.035986   0.270519
    10     I      -0.001855  -0.002399  -0.002072
 
 Mode:     8      Frequency (cm-1):       70.9965     Intensity (km/mol):        0.5129
 Index  Atom      ---- Displacements (x/y/z) ----
     1    Pa       0.026524   0.001161   0.029609
     2     O      -0.148244  -0.028337  -0.083747
     3     H      -0.284645  -0.062426  -0.165965
     4     O      -0.213341  -0.015237  -0.194629
     5     H      -0.402025  -0.045075  -0.365762
     6     O      -0.141084   0.025037  -0.079072
     7     H      -0.305686   0.040783  -0.206030
     8     O      -0.170795   0.015749  -0.142299
     9     H      -0.382678  -0.014461  -0.334469
    10     I       0.047514  -0.001117   0.017598
 
 Mode:     9      Frequency (cm-1):       80.9068     Intensity (km/mol):        0.0503
 Index  Atom      ---- Displacements (x/y/z) ----
     1    Pa       0.015762   0.032113  -0.015439
     2     O      -0.326681  -0.019306  -0.240681
     3     H      -0.505180  -0.060886  -0.350009
     4     O      -0.007812   0.009560  -0.017014
     5     H      -0.151642  -0.012890  -0.123936
     6     O      -0.017141   0.010956  -0.017222
     7     H       0.086858   0.001498   0.067634
     8     O       0.290527   0.010856   0.193958
     9     H       0.424678  -0.024542   0.302849
    10     I      -0.019840  -0.059215   0.039133
 
 Mode:    10      Frequency (cm-1):       81.8114     Intensity (km/mol):        0.0963
 Index  Atom      ---- Displacements (x/y/z) ----
     1    Pa      -0.024831   0.020522   0.019251
     2     O       0.018221   0.015180   0.026485
     3     H       0.182428   0.022553   0.122200
     4     O      -0.250893   0.003101  -0.175682
     5     H      -0.334260  -0.007360  -0.297678
     6     O       0.352397   0.021857   0.238845
     7     H       0.588339   0.014242   0.339344
     8     O       0.030461   0.006469   0.045930
     9     H      -0.048166   0.007408  -0.021392
    10     I       0.023194  -0.043527  -0.053267
 
 Mode:    11      Frequency (cm-1):      129.2376     Intensity (km/mol):       54.0362
 Index  Atom      ---- Displacements (x/y/z) ----
     1    Pa      -0.299614  -0.001123  -0.226946
     2     O       0.006067   0.015655   0.012135
     3     H       0.178339   0.158251   0.128268
     4     O      -0.035367  -0.091366   0.057980
     5     H       0.103449  -0.069037   0.274269
     6     O       0.007735  -0.088300   0.075386
     7     H       0.184622  -0.113307   0.251494
     8     O      -0.002750   0.018015   0.016180
     9     H       0.211728   0.125557   0.228538
    10     I       0.543141   0.019639   0.385780
 
 Mode:    12      Frequency (cm-1):      137.4881     Intensity (km/mol):       45.6707
 Index  Atom      ---- Displacements (x/y/z) ----
     1    Pa      -0.003741  -0.047565  -0.003043
     2     O      -0.113137   0.106238   0.151258
     3     H      -0.138039   0.092432   0.134520
     4     O       0.096764   0.215998  -0.151147
     5     H       0.295329   0.258434  -0.429972
     6     O       0.085358   0.204065  -0.142847
     7     H       0.290705   0.256016  -0.436091
     8     O      -0.067376   0.094620   0.174215
     9     H      -0.090460   0.061332   0.147970
    10     I       0.003769   0.003027   0.006206
 
 Mode:    13      Frequency (cm-1):      142.4574     Intensity (km/mol):       38.3232
 Index  Atom      ---- Displacements (x/y/z) ----
     1    Pa      -0.033377   0.000642   0.034348
     2     O       0.128411  -0.173674  -0.166896
     3     H       0.176692  -0.511061  -0.187233
     4     O       0.081423   0.192272  -0.062885
     5     H       0.081287   0.192563  -0.078487
     6     O       0.042504   0.182253  -0.085236
     7     H       0.014329   0.182910  -0.096122
     8     O       0.145105  -0.181630  -0.164217
     9     H       0.168021  -0.510679  -0.207493
    10     I       0.007174   0.001541   0.002391
 
 Mode:    14      Frequency (cm-1):      194.4190     Intensity (km/mol):        0.2095
 Index  Atom      ---- Displacements (x/y/z) ----
     1    Pa      -0.000050  -0.001082   0.000564
     2     O       0.106096  -0.119493  -0.138954
     3     H       0.129915  -0.409871  -0.167232
     4     O      -0.068542  -0.167865   0.091860
     5     H      -0.179046  -0.194124   0.343463
     6     O       0.061718   0.182533  -0.106733
     7     H       0.232676   0.226728  -0.355032
     8     O      -0.099264   0.120852   0.144627
     9     H      -0.141901   0.377938   0.157586
    10     I      -0.000241  -0.000055   0.000301
 
 Mode:    15      Frequency (cm-1):      272.6114     Intensity (km/mol):      310.1143
 Index  Atom      ---- Displacements (x/y/z) ----
     1    Pa      -0.003100  -0.000006  -0.002691
     2     O       0.008088  -0.005357   0.000648
     3     H      -0.020977   0.066407  -0.005072
     4     O       0.006547  -0.006070   0.019498
     5     H       0.049323   0.001201   0.016063
     6     O       0.017262  -0.005509  -0.008542
     7     H      -0.177353  -0.017087   0.024851
     8     O       0.074611   0.031844   0.064723
     9     H      -0.695143  -0.202360  -0.651269
    10     I      -0.001077  -0.000662   0.000167
 
 Mode:    16      Frequency (cm-1):      283.9912     Intensity (km/mol):      241.0938
 Index  Atom      ---- Displacements (x/y/z) ----
     1    Pa      -0.002339  -0.000408  -0.002004
     2     O      -0.005065   0.011200  -0.000882
     3     H       0.003171  -0.065473  -0.006958
     4     O       0.011364  -0.000656   0.007319
     5     H      -0.109134  -0.020835  -0.049972
     6     O       0.082070  -0.000793   0.054857
     7     H      -0.833405   0.054294  -0.497778
     8     O       0.000201   0.004059   0.003747
     9     H       0.119856  -0.007347   0.104765
    10     I      -0.000397  -0.000685  -0.000976
 
 Mode:    17      Frequency (cm-1):      289.7520     Intensity (km/mol):      331.5133
 Index  Atom      ---- Displacements (x/y/z) ----
     1    Pa      -0.002564   0.000250  -0.002743
     2     O       0.037684  -0.009805   0.019603
     3     H      -0.196055   0.030605  -0.108697
     4     O       0.066322   0.002426   0.068560
     5     H      -0.700795  -0.112981  -0.645395
     6     O      -0.002652   0.000853  -0.001054
     7     H       0.124606   0.001576   0.026886
     8     O      -0.005382  -0.000202   0.000572
     9     H      -0.026977   0.006385  -0.017801
    10     I      -0.001082   0.000983  -0.000141
 
 Mode:    18      Frequency (cm-1):      293.9497     Intensity (km/mol):      117.9093
 Index  Atom      ---- Displacements (x/y/z) ----
     1    Pa       0.001489  -0.000248   0.001230
     2     O      -0.074445   0.002225  -0.047749
     3     H       0.828664   0.054876   0.481153
     4     O       0.031947   0.002195   0.009147
     5     H      -0.222136  -0.039065  -0.103808
     6     O      -0.013651   0.001024  -0.010889
     7     H       0.006756   0.000849  -0.008785
     8     O      -0.000668  -0.005318   0.001459
     9     H      -0.051596   0.065671  -0.027803
    10     I      -0.000010  -0.000219   0.001108
 
 Mode:    19      Frequency (cm-1):      308.4889     Intensity (km/mol):       37.9877
 Index  Atom      ---- Displacements (x/y/z) ----
     1    Pa       0.000698  -0.000531   0.001378
     2     O       0.000587  -0.086044  -0.010152
     3     H       0.031573   0.468752   0.090185
     4     O      -0.050029  -0.009707   0.054293
     5     H       0.237321   0.052770  -0.298152
     6     O       0.052908   0.015238  -0.082985
     7     H      -0.282453  -0.079153   0.434754
     8     O      -0.030929   0.090069  -0.002778
     9     H       0.243779  -0.492114   0.120125
    10     I       0.000363   0.000157  -0.000017
 
 Mode:    20      Frequency (cm-1):      350.9681     Intensity (km/mol):      661.1662
 Index  Atom      ---- Displacements (x/y/z) ----
     1    Pa       0.002785  -0.004112  -0.003224
     2     O       0.002944   0.065837  -0.020886
     3     H       0.133338  -0.438132  -0.021380
     4     O      -0.050706  -0.013675   0.065962
     5     H       0.285276   0.060204  -0.343994
     6     O      -0.048539  -0.017452   0.069187
     7     H       0.280964   0.066794  -0.386365
     8     O       0.004649   0.077426  -0.018391
     9     H       0.112709  -0.559232  -0.051146
    10     I       0.000030   0.000264   0.000163
 
 Mode:    21      Frequency (cm-1):      355.3860     Intensity (km/mol):      643.7419
 Index  Atom      ---- Displacements (x/y/z) ----
     1    Pa      -0.002631  -0.004053   0.003741
     2     O      -0.006512   0.091006   0.010521
     3     H       0.028104  -0.517646  -0.060907
     4     O       0.054223  -0.015940  -0.059795
     5     H      -0.393170  -0.109401   0.365643
     6     O       0.030031  -0.015540  -0.055223
     7     H      -0.153021  -0.100214   0.436235
     8     O      -0.016920   0.069306   0.003631
     9     H       0.111046  -0.407820   0.018758
    10     I       0.000357   0.000156  -0.000131
 
 Mode:    22      Frequency (cm-1):      395.8003     Intensity (km/mol):        4.0834
 Index  Atom      ---- Displacements (x/y/z) ----
     1    Pa       0.000022  -0.000623  -0.000317
     2     O      -0.009161   0.042948   0.009210
     3     H       0.056451  -0.500550  -0.032780
     4     O      -0.030206  -0.014320   0.041273
     5     H       0.331866   0.064017  -0.425742
     6     O       0.020004   0.013430  -0.035815
     7     H      -0.242618  -0.065010   0.407533
     8     O       0.013730  -0.030493  -0.009027
     9     H      -0.081706   0.453812   0.002699
    10     I       0.000161   0.000055   0.000250
 
 Mode:    23      Frequency (cm-1):      479.5709     Intensity (km/mol):        0.2350
 Index  Atom      ---- Displacements (x/y/z) ----
     1    Pa      -0.000273   0.000269   0.000348
     2     O      -0.074220  -0.158979   0.146325
     3     H      -0.023280  -0.424161   0.131751
     4     O      -0.111531   0.159716   0.112390
     5     H      -0.296093   0.116062   0.329727
     6     O       0.084378  -0.166052  -0.142050
     7     H       0.214384  -0.119660  -0.381315
     8     O       0.107056   0.163242  -0.120635
     9     H       0.076343   0.401865  -0.094947
    10     I       0.000009  -0.000023  -0.000016
 
 Mode:    24      Frequency (cm-1):      530.1454     Intensity (km/mol):      403.5286
 Index  Atom      ---- Displacements (x/y/z) ----
     1    Pa       0.026221  -0.017757  -0.035488
     2     O      -0.033028  -0.061650   0.063232
     3     H       0.012344  -0.208602   0.066195
     4     O      -0.149535   0.195447   0.149971
     5     H      -0.415177   0.136407   0.430226
     6     O      -0.105270   0.192737   0.178819
     7     H      -0.264506   0.130719   0.518562
     8     O      -0.044607  -0.062946   0.052152
     9     H      -0.047106  -0.184479   0.024253
    10     I      -0.000162   0.000105   0.000370
 
 Mode:    25      Frequency (cm-1):      532.0539     Intensity (km/mol):      403.3667
 Index  Atom      ---- Displacements (x/y/z) ----
     1    Pa      -0.009154  -0.043982   0.015288
     2     O       0.086467   0.204090  -0.176999
     3     H      -0.008550   0.592814  -0.170933
     4     O      -0.044570   0.070828   0.045462
     5     H      -0.159296   0.046110   0.143499
     6     O      -0.031535   0.067466   0.052324
     7     H      -0.086755   0.045507   0.171976
     8     O       0.130797   0.210218  -0.144359
     9     H       0.110224   0.574629  -0.086394
    10     I       0.000021   0.000423  -0.000116
 
 Mode:    26      Frequency (cm-1):      608.7389     Intensity (km/mol):       96.4106
 Index  Atom      ---- Displacements (x/y/z) ----
     1    Pa       0.005755   0.000488   0.004498
     2     O       0.084177   0.270530  -0.195757
     3     H       0.050123   0.288814  -0.213114
     4     O      -0.193957   0.204578   0.193333
     5     H      -0.220191   0.200106   0.195409
     6     O       0.135299  -0.207343  -0.238963
     7     H       0.125638  -0.201029  -0.282754
     8     O      -0.144643  -0.276314   0.152060
     9     H      -0.160325  -0.295692   0.135325
    10     I       0.006164   0.000252   0.004381
 
 Mode:    27      Frequency (cm-1):     3780.2847     Intensity (km/mol):      599.6638
 Index  Atom      ---- Displacements (x/y/z) ----
     1    Pa       0.000018  -0.000055  -0.000022
     2     O       0.000841   0.000243  -0.001457
     3     H      -0.014580  -0.003434   0.024944
     4     O       0.008394  -0.046869  -0.001439
     5     H      -0.134566   0.749840   0.023980
     6     O       0.001412  -0.039686  -0.006312
     7     H      -0.023108   0.634179   0.101001
     8     O      -0.001556  -0.000291   0.001801
     9     H       0.024288   0.005862  -0.027808
    10     I      -0.000004   0.000004   0.000004
 
 Mode:    28      Frequency (cm-1):     3782.7795     Intensity (km/mol):      343.1536
 Index  Atom      ---- Displacements (x/y/z) ----
     1    Pa       0.000023   0.000024  -0.000033
     2     O       0.027008   0.006866  -0.046765
     3     H      -0.432787  -0.112612   0.749406
     4     O       0.002875  -0.016670  -0.000399
     5     H      -0.048182   0.267616   0.008739
     6     O      -0.000742   0.021453   0.003336
     7     H       0.012546  -0.346307  -0.054867
     8     O       0.007952   0.001918  -0.009128
     9     H      -0.125501  -0.029007   0.144318
    10     I      -0.000000  -0.000003   0.000003
 
 Mode:    29      Frequency (cm-1):     3786.2689     Intensity (km/mol):      265.4395
 Index  Atom      ---- Displacements (x/y/z) ----
     1    Pa       0.000021   0.000015  -0.000030
     2     O       0.003385   0.001012  -0.005929
     3     H      -0.053399  -0.013989   0.092391
     4     O      -0.003695   0.020974   0.000598
     5     H       0.060634  -0.338776  -0.010710
     6     O       0.000907  -0.027752  -0.004267
     7     H      -0.016252   0.444845   0.071132
     8     O       0.032920   0.007438  -0.037918
     9     H      -0.527784  -0.121772   0.607777
    10     I       0.000000  -0.000002   0.000003
 
 Mode:    30      Frequency (cm-1):     3869.0100     Intensity (km/mol):       59.0681
 Index  Atom      ---- Displacements (x/y/z) ----
     1    Pa      -0.000038  -0.000005  -0.000026
     2     O       0.014738   0.003831  -0.025469
     3     H      -0.232450  -0.059166   0.405540
     4     O      -0.005220   0.029230   0.000948
     5     H       0.083266  -0.464358  -0.013041
     6     O       0.001166  -0.031490  -0.004969
     7     H      -0.016340   0.500492   0.078656
     8     O      -0.022113  -0.005065   0.025548
     9     H       0.352895   0.079546  -0.404370
    10     I       0.000021   0.000001   0.000014

PES point character: Geometry corresponds to a local minimum on the PES.




 ============================
 Statistical Thermal Analysis  ***  ideal gas assumed  ***
 ============================
  
 Pressure:                  1.000000 atm.
 Temperature:             298.150000 K



 Moments of Inertia [amu*bohr^2] and principal axis
 ==================================================

        1112.0655       3636.1587       3636.4059
 ------------------------------------------------
           0.8135         -0.3923         -0.4294
           0.0357          0.7705         -0.6364
           0.5805          0.5024          0.6408


 The rotational contribution to the molecular entropy includes
 a term, dependent on the symmetry number sigma. The results 
 reported below were computed using sigma = 1, determined from
 the point group symmetry of the input geometry (NOSYM). 
 If this is not the correct symmetry, try symmetrizing the molecule before
 running the calculation (note: linear molecules should be aligned along one
 of the Cartesian axes).
 Contributions from frequencies below 20 1/cm are not included in vibrational sums.
 Their contributions, if any, are reported separately.


     Temp                                                        Transl      Rotat     Vibrat     Total
     ----                                                        ------      -----     ------     -----

     298.15   Entropy (cal/mol-K):                               44.038     31.065     40.366    115.469
              Nuclear Internal Energy (kcal/mol):                 0.889      0.889     35.854     37.631
              Constant Volume Heat Capacity (cal/mol-K):          2.981      2.981     33.218     39.179
          (c) Constant Volume Heat Capacity (cal/mol-K):          2.981      2.981     29.429     35.391

       Summary of energy terms
                                                   hartree              eV         kcal/mol           kJ/mol
                                      --------------------     -----------       ----------      -----------
      Energy from Engine:               -2.625987779514436        -71.4568         -1647.83         -6894.53
      Nuclear Internal Energy:           0.059969514259584          1.6319            37.63           157.45
  (c) Nuclear Internal Energy:           0.058026396060392          1.5790            36.41           152.35
      Internal Energy U:                -2.566018265254852        -69.8249         -1610.20         -6737.08
      pV/n = RT:                         0.000944186013486          0.0257             0.59             2.48
      Enthalpy H:                       -2.565074079241366        -69.7992         -1609.61         -6734.60
      -T*S:                             -0.054862858411456         -1.4929           -34.43          -144.04
  (c) -T*S:                             -0.053336539335277         -1.4514           -33.47          -140.04
      Gibbs free energy:                -2.619936937652822        -71.2921         -1644.04         -6878.64
 
 
 
  (c) The properties marked with this symbol have been corrected using 'low vibrational frequency free rotor
      interpolation corrections'. For those terms all positive frequencies are used (also ones below 20 1/cm),
      but the contribution to the partition function of small vibrational frequencies is modified as described
      in the following paper:
      S. Grimme, 'Supramolecular Binding Thermodynamics by Dispersion-Corrected Density Functional Theory'
      (Chem. Eur. J. 2012, 18, 9955-9964)
      Configuration: Dampener Frequency          :   100.000 1/cm
                     Dampener Alpha              :     4.000
                     Averaging Moment of Inertia : 1.000E-44 kg m2

--------------
Atomic charges
--------------
  Index   Atom    Charge
      1     Pa    2.6432
      2      O   -0.6633
      3      H    0.1390
      4      O   -0.6638
      5      H    0.1395
      6      O   -0.6618
      7      H    0.1373
      8      O   -0.6624
      9      H    0.1377
     10      I   -0.5453


Dipole moment vector    (Debye):    -6.48661830   -0.32956505   -4.63894296
              magnitude (Debye):     7.98151751


Final PES point is a local minimum. Geometry optimization successful!


AMS application finished. Exiting.
NORMAL TERMINATION
     Total cpu time:  133255.60
  Total system time:   90931.24
 Total elapsed time:  247379.16
 WARNING: total system time is high compared to CPU time. 
 Make sure the machine is not oversubscribed and has enough memory, SCM_TMPDIR p
 oints to a fast file system, and the network is fast enough.
